ITEM: TIMESTEP
10000
ITEM: NUMBER OF ATOMS
6912
ITEM: BOX BOUNDS pp pp pp
0.0000000000000000e+00 1.0000000000000000e+01
0.0000000000000000e+00 1.0000000000000000e+01
0.0000000000000000e+00 1.0000000000000000e+01
ITEM: ATOMS id type x y z
213 1 0.702373 0.294519 0.56862
5215 1 0.483128 0.18747 0.432291
2819 1 0.0575449 0.15123 0.12163
5616 1 1.20777 0.578384 0.457682
499 1 1.35455 0.141788 0.368289
1515 1 2.07215 0.493642 0.236363
1195 1 1.80325 0.603509 0.713749
1834 1 2.3203 0.116849 0.430837
648 1 2.89092 0.428812 0.675176
1476 1 3.54108 0.118728 0.370366
4436 1 3.42588 0.713901 0.235552
33 1 2.98639 0.31039 0.372613
1446 1 3.96654 0.464736 0.531461
4254 1 4.13992 0.0393705 0.116942
3505 1 4.46958 0.61134 0.403408
4304 1 4.49425 0.113674 0.704182
333 1 4.87693 0.340786 0.108944
4210 1 0.304252 0.80445 0.301454
1851 1 0.2152 1.23104 0.191037
932 1 1.37335 1.00911 0.625728
3821 1 1.41856 1.15455 0.0775487
20 1 0.789953 0.963367 0.361657
1556 1 0.79787 1.29462 0.148844
2836 1 1.64786 0.856619 0.275602
6247 1 2.00181 1.05005 0.616043
860 1 2.45121 0.93257 0.414598
622 1 2.72634 0.811488 0.19738
6043 1 3.1258 1.38152 0.113936
3616 1 3.07993 1.11183 0.619056
3580 1 3.62134 1.1936 0.426205
6604 1 3.95576 0.780599 0.198976
4652 1 4.00465 1.21911 0.576172
2789 1 4.37056 1.36841 0.520063
4757 1 4.65488 0.942361 0.133494
4598 1 0.42042 1.73061 0.0605486
1376 1 0.15075 1.68303 0.605501
1356 1 0.993104 1.57555 0.567441
6444 1 1.31084 1.5924 0.457891
3796 1 2.00083 1.47665 0.142386
983 1 1.6053 1.82828 0.123128
1636 1 2.08356 2.04777 0.351183
1409 1 2.63809 1.45931 0.495282
3207 1 2.45113 2.03623 0.16584
3433 1 2.3331 1.56481 0.690308
1624 1 2.7282 2.09993 0.477543
4685 1 3.35438 2.09503 0.488313
1421 1 3.12964 1.72716 0.530725
1045 1 3.73396 1.81343 0.281154
4893 1 4.30541 1.8851 0.288026
5234 1 4.88571 1.81603 0.388538
1891 1 4.80857 1.52605 0.061831
747 1 0.663813 2.68765 0.0571717
6169 1 0.483688 2.20157 0.440349
4013 1 0.407627 2.75784 0.544934
1740 1 0.975869 2.16637 0.311083
2739 1 1.21709 2.84539 0.199391
4489 1 1.08759 2.66336 0.70882
3903 1 1.54325 2.55038 0.180112
3504 1 1.71225 2.40374 0.527487
3626 1 2.06187 2.62836 0.647357
3904 1 2.07036 2.65941 0.0135994
2033 1 2.69423 2.56964 0.31406
6504 1 3.53859 2.77364 0.665168
192 1 2.87809 2.82673 0.260362
826 1 3.42663 2.55434 0.163826
307 1 3.91386 2.33812 0.344216
6733 1 4.58216 2.59009 0.258033
561 1 4.82953 2.21487 0.63982
6464 1 4.3037 2.56933 0.358814
4190 1 0.0250165 3.50608 0.255079
3578 1 0.513784 3.21553 0.356854
1272 1 1.1472 3.28956 0.331385
43 1 1.84301 3.09246 0.534372
5006 1 2.54281 3.28965 0.593175
6799 1 2.26102 3.08627 0.50598
5030 1 2.64012 3.52195 0.0628261
4520 1 3.56001 3.18825 0.618659
2716 1 3.13241 3.51704 0.130175
2775 1 3.88052 3.36459 0.272201
5071 1 3.91247 2.89092 0.0491254
6608 1 4.36473 3.21114 0.410165
6438 1 4.32608 3.16017 0.0405004
5286 1 0.562769 3.60617 0.00562979
3258 1 0.37463 3.95358 0.257252
458 1 0.668838 4.23195 0.327464
1896 1 0.855451 3.68316 0.66447
1459 1 1.03348 4.00085 0.204045
718 1 1.72899 4.04269 0.0513818
1792 1 2.01292 3.59219 0.395606
5102 1 1.44734 3.64203 0.609997
6573 1 1.51433 3.84238 0.308592
5104 1 2.54856 3.7643 0.507855
3988 1 2.40197 4.23124 0.32303
5588 1 3.033 3.65632 0.566665
3446 1 2.86014 4.22214 0.3817
3808 1 2.97903 3.97178 0.035918
5549 1 4.09736 3.73826 0.601871
2340 1 3.88215 4.20593 0.475496
1959 1 3.58187 3.8494 0.544628
5241 1 4.13706 3.86205 0.11431
3728 1 4.59209 3.70319 0.142836
1180 1 4.8941 3.88181 0.301465
1715 1 0.0781092 4.50346 0.68831
82 1 0.0892489 4.53895 0.114068
95 1 0.618962 4.62193 0.5031
3800 1 0.221488 4.98988 0.0267654
61 1 1.33856 4.42662 0.387099
5929 1 1.27207 4.83285 0.177184
203 1 1.94119 4.49357 0.432
5621 1 1.77693 4.96307 0.449134
5329 1 2.43191 4.79228 0.293294
1384 1 3.15107 4.96365 0.253342
4929 1 3.38737 4.63256 0.0954776
1000 1 3.42062 4.44256 0.548364
993 1 4.16904 4.46945 0.560448
6804 1 3.65028 4.82635 0.678773
6828 1 3.84255 4.86346 0.346852
3008 1 4.60943 4.2914 0.518304
3188 1 4.73546 4.6733 0.430271
5081 1 4.39298 4.95374 0.556574
2762 1 4.46625 4.47117 0.0221951
3 1 0.391704 0.161245 1.19928
3861 1 0.119348 0.703674 0.973774
3628 1 0.864458 0.46239 1.18249
360 1 1.31876 0.630635 1.36255
2451 1 1.46941 0.386994 1.06076
6800 1 1.94881 0.34237 1.41741
1552 1 2.68355 0.293487 1.04656
1143 1 2.34416 0.0802659 1.4158
646 1 2.20799 0.432903 0.862483
1103 1 3.43223 0.239111 0.900511
6021 1 2.99466 0.641958 1.32709
995 1 3.46065 0.697059 0.752168
6008 1 3.86471 0.087916 0.76564
5777 1 4.2796 0.411975 1.23465
5934 1 3.68458 0.35993 1.36464
6798 1 4.50155 0.208285 1.10223
1466 1 0.513446 1.41456 1.16416
5943 1 0.520527 1.01446 1.39838
1549 1 0.653622 0.73535 0.770613
5352 1 0.491632 1.37997 0.716853
759 1 1.03945 1.05889 0.930314
483 1 1.78381 0.903494 1.35376
5067 1 1.86052 1.11966 1.02744
322 1 2.32162 1.24014 1.21398
6485 1 2.43201 0.897258 0.969948
3430 1 2.9449 1.3364 1.27623
165 1 3.43359 0.89746 1.1757
6149 1 2.90478 1.04259 0.96377
5494 1 3.52442 1.2436 0.890415
5909 1 3.9465 0.770194 0.99983
494 1 4.1479 1.15807 1.07963
3618 1 4.74784 1.40523 1.38955
6172 1 4.61227 0.859688 0.889418
3046 1 4.49216 0.960509 1.39439
1854 1 0.234719 1.76338 1.22495
1706 1 1.29615 1.4643 1.10525
673 1 1.34286 2.12528 0.801662
3698 1 1.29199 2.088 1.13783
6459 1 0.935492 1.53737 1.29666
141 1 0.79504 1.99508 1.01149
4556 1 1.9223 1.86068 1.08105
3434 1 1.78727 1.6191 0.760904
156 1 2.53083 1.74544 0.964085
3323 1 2.43573 1.93436 1.38762
899 1 3.56631 2.10761 1.10063
955 1 3.12036 1.7818 1.0567
3534 1 4.27848 1.8858 0.737423
4354 1 4.10226 1.81705 1.39854
521 1 3.82006 1.69825 0.801551
1142 1 3.68874 1.60029 1.34738
3637 1 4.68589 2.13358 1.28682
6543 1 4.89367 1.44232 0.725067
4385 1 4.52324 1.56231 0.921938
224 1 0.339925 2.19027 0.855155
1562 1 0.125238 2.67904 1.07964
6890 1 1.3471 2.67834 1.42697
1899 1 0.852744 2.63619 1.22127
702 1 1.65279 2.70156 1.04942
809 1 1.87941 2.32028 1.13917
2272 1 2.23742 2.38133 1.41173
3200 1 2.54281 2.69627 0.965919
5906 1 2.50285 2.20212 0.837686
2825 1 3.13026 2.48509 0.754115
3049 1 3.49637 2.77502 1.243
3949 1 2.91979 2.44208 1.0567
3734 1 3.82328 2.39574 0.83618
5731 1 4.21348 2.7131 1.27305
1881 1 4.27069 2.31203 1.04911
5502 1 4.86592 2.44861 1.42576
792 1 4.69004 2.73066 0.93177
1424 1 0.209093 3.34133 0.767124
3690 1 0.637314 3.49731 1.23619
823 1 0.25616 3.0434 1.18812
1594 1 1.23916 3.3182 1.08669
4248 1 1.36824 2.93942 0.782776
4384 1 1.14558 3.06848 1.36606
4113 1 0.759912 3.14016 0.80424
569 1 2.023 3.04289 1.21689
4239 1 1.77926 3.39477 0.825759
1 1 2.48391 2.90074 1.15385
179 1 2.60331 3.54295 1.26558
4762 1 3.28875 3.53439 1.17031
3940 1 3.09018 2.92466 1.26895
5091 1 2.95527 3.1177 0.863266
3082 1 3.86722 3.30837 0.955431
2341 1 4.24568 2.93174 0.800913
3978 1 4.32262 3.38555 1.2474
1230 1 4.69725 3.43585 0.756998
4111 1 4.85609 3.09202 1.2135
3584 1 0.400822 3.71649 0.782992
496 1 0.443561 4.21954 1.09081
4986 1 0.066357 3.78549 1.13203
1819 1 0.920075 4.12926 0.871638
4030 1 0.87122 3.7956 1.31973
5612 1 2.01232 4.07721 0.738595
34 1 1.47726 3.8862 1.10738
5475 1 2.08781 4.13007 1.19683
6539 1 1.6712 3.80933 1.41925
4466 1 2.85323 3.96908 0.937824
6053 1 2.50489 4.09128 1.33488
3448 1 2.29594 3.61113 1.10099
2326 1 3.24706 4.18922 0.925488
423 1 3.58855 3.80285 1.19927
216 1 3.88472 4.07689 0.980905
5615 1 4.95023 3.92892 0.841076
1362 1 4.42966 3.7874 0.855646
1948 1 0.367578 4.88812 1.03808
399 1 0.0232807 4.37309 1.22589
6910 1 1.31389 4.85748 1.42499
5283 1 0.858454 4.59826 1.38184
1670 1 1.03039 4.58759 0.934287
674 1 1.49757 4.94799 0.755511
670 1 1.55257 4.3235 0.9191
1912 1 1.64672 4.443 1.28095
3874 1 2.18574 4.75175 0.95976
1070 1 2.61247 4.45495 0.80258
1969 1 2.35575 4.60699 1.42046
3828 1 2.71319 4.95907 1.39474
1383 1 3.42008 4.97928 1.27271
6686 1 3.03115 4.78272 0.731963
2397 1 2.95264 4.54809 1.18552
575 1 3.76582 4.50996 1.11765
3703 1 4.23726 4.33494 1.08451
6609 1 4.70115 4.96081 0.947698
5278 1 4.6137 4.5411 1.1057
1882 1 0.342534 0.670339 1.65362
3684 1 1.37869 0.134253 1.74297
317 1 1.36369 0.705422 2.10938
3116 1 0.919248 0.561059 1.81606
2769 1 0.886134 0.238729 1.83038
84 1 1.60354 0.579509 1.87954
535 1 2.05419 0.346153 1.95526
210 1 2.29016 0.610031 2.06314
3271 1 2.47493 0.675335 1.57314
1957 1 2.74942 0.35948 2.13206
3112 1 2.76031 0.294343 1.74024
3914 1 3.44963 0.157392 2.13795
3386 1 3.23544 0.403179 1.64038
1507 1 4.02783 0.588259 2.0784
6460 1 3.94798 0.235574 1.62862
5764 1 4.92993 0.698778 1.50013
5452 1 4.84066 0.538372 1.85026
74 1 4.29087 0.093001 1.81681
2372 1 0.151029 1.2529 2.04
4311 1 0.139773 1.24798 1.58875
5368 1 0.736604 1.0939 1.84478
2 1 1.33692 1.17782 2.11601
4555 1 1.07697 0.952848 1.45973
3642 1 1.84257 1.12212 1.89827
6177 1 1.45824 1.24343 1.524
5054 1 2.17034 1.2312 1.77772
5110 1 2.83329 0.967171 1.63041
1547 1 3.00291 0.908762 2.11692
5472 1 3.24465 1.34344 1.6057
2103 1 3.35195 0.85349 1.99766
1939 1 3.94609 1.19702 2.13758
5341 1 3.92736 1.30632 1.50451
1784 1 3.69208 0.775372 1.58935
3916 1 4.75391 0.935347 2.115
4960 1 4.31999 0.736897 1.69937
370 1 4.41883 1.19372 1.989
1325 1 0.502889 1.84349 2.06088
5700 1 0.343587 1.99486 1.57397
38 1 1.22367 2.08362 2.12617
401 1 1.18935 1.67822 1.90144
2967 1 0.742626 1.5802 1.71064
4130 1 2.07688 1.76379 1.81401
3452 1 1.53379 1.99374 1.6593
1464 1 1.77403 1.67844 1.99358
5148 1 1.84169 1.65798 1.47696
1745 1 2.77823 1.5972 1.98527
5600 1 2.54402 1.46272 1.62591
1462 1 2.94796 2.0583 1.54265
349 1 3.28434 1.43176 2.04916
5113 1 3.42964 1.92958 1.98113
2465 1 3.82334 1.95639 1.93613
2698 1 4.14539 1.71796 2.03671
726 1 4.8534 1.99597 1.95057
3141 1 4.46294 1.71147 1.5678
6448 1 4.88577 1.47006 1.97909
4262 1 0.495952 2.59176 1.43352
4148 1 0.227577 2.42308 1.57824
2456 1 0.422208 2.84043 2.02074
5301 1 0.692694 2.20639 2.04615
4658 1 0.846525 2.14655 1.49065
5737 1 1.14194 2.38427 1.81124
5184 1 0.903838 2.85585 1.96787
3683 1 2.12809 2.78999 1.70718
5201 1 1.74721 2.3696 1.70685
4171 1 1.62865 2.79043 2.03086
4991 1 2.38243 2.19328 1.81145
4114 1 2.82941 2.38628 1.98766
1440 1 2.82614 2.61363 1.56921
120 1 3.39352 2.27947 1.47132
1711 1 3.33774 2.63621 1.84182
6107 1 3.83534 2.70316 1.86215
3408 1 3.90736 2.38484 1.48874
3962 1 4.42055 2.32606 1.85884
2358 1 4.78039 2.69404 2.05675
725 1 0.233273 3.38847 1.55231
3483 1 1.20397 3.18809 2.09195
827 1 0.775244 3.11891 1.52479
584 1 1.64097 3.29651 1.43287
841 1 1.62295 3.40959 1.9448
384 1 2.18887 3.24286 1.73273
3464 1 2.83359 3.01135 1.92301
2366 1 2.66297 3.30178 1.62402
134 1 3.31511 3.30151 1.48561
1687 1 3.34282 3.35892 1.84872
1404 1 3.85816 3.01321 1.48528
5782 1 3.8609 3.43158 1.74062
4040 1 4.04192 3.42885 2.08993
2160 1 4.31385 2.95539 2.03336
4153 1 4.65202 3.44261 1.70378
538 1 4.57146 2.86139 1.52437
2619 1 0.356831 3.99192 1.56992
3987 1 0.683187 3.73097 1.90192
397 1 1.05686 4.23417 1.4355
2256 1 1.35535 4.12799 2.02247
2199 1 1.18561 3.65795 1.72121
2111 1 2.11096 3.78316 1.78463
2744 1 2.70426 3.7447 2.04074
830 1 2.20287 4.28503 1.7794
6121 1 3.0811 3.85486 1.55223
6650 1 3.36495 4.04433 1.89669
4690 1 2.8683 4.23483 2.00207
5935 1 4.06757 3.79047 1.50563
86 1 3.70402 4.00687 1.72294
5476 1 4.61649 3.86979 1.48844
3846 1 4.37514 3.91304 2.01439
1841 1 4.83613 4.12827 1.99144
5063 1 0.62621 4.3468 2.07609
4696 1 0.330285 4.61174 1.5734
484 1 0.230591 4.70296 2.07459
1342 1 1.31611 4.73207 2.03334
2455 1 0.885743 4.35698 1.95264
4207 1 0.810813 4.98824 1.698
1812 1 1.62649 4.52146 1.87312
2049 1 2.04182 4.85012 1.65526
1642 1 2.59181 4.96996 1.94829
2195 1 3.42652 4.99201 1.93098
1985 1 3.50124 4.46888 1.4408
5825 1 3.49866 4.5005 2.12007
287 1 3.03632 4.49999 1.67799
5211 1 4.15693 4.36721 1.66126
5750 1 3.95965 4.66643 1.91817
5388 1 4.60898 4.37276 1.76315
2559 1 4.31227 4.87288 1.57133
5299 1 4.94878 4.71062 1.72268
1902 1 0.396096 0.658495 2.21201
4567 1 0.381589 0.216788 2.44585
6501 1 1.12593 0.07311 2.38468
3472 1 0.857386 0.144384 2.62235
152 1 1.58759 0.113457 2.30314
1526 1 1.59807 0.429531 2.76701
4203 1 2.01012 0.382054 2.42959
268 1 2.70441 0.160753 2.64874
1313 1 3.1474 0.257763 2.68864
6198 1 3.49 0.706457 2.47854
1320 1 3.76408 0.392721 2.67683
218 1 3.93512 0.0746551 2.32611
1337 1 4.65817 0.0248375 2.23071
5518 1 4.90889 0.336943 2.64554
3982 1 4.4125 0.515536 2.29612
3480 1 4.35684 0.409098 2.77172
2001 1 0.634044 1.18139 2.79099
253 1 0.139708 1.11451 2.74327
4029 1 0.804574 0.734318 2.35502
3672 1 0.717379 1.30024 2.28729
5508 1 1.24952 1.04063 2.64171
5571 1 2.00377 1.11193 2.68395
3539 1 1.79132 0.879725 2.43996
3791 1 2.61219 0.797374 2.61396
2522 1 2.41758 0.994574 2.15987
2659 1 3.05574 1.2875 2.39216
2122 1 3.00668 0.861313 2.68884
3140 1 3.64282 1.10286 2.57323
2236 1 4.24118 0.88881 2.4146
3515 1 4.69209 0.897883 2.75292
421 1 4.47482 1.30107 2.68312
154 1 0.178808 1.89997 2.50941
961 1 0.042425 1.54273 2.40429
439 1 1.31634 1.48705 2.57534
3364 1 1.36988 2.07818 2.6886
321 1 0.776254 1.86098 2.59936
5591 1 1.95862 2.10407 2.50473
2562 1 1.91873 1.57199 2.45238
711 1 2.45043 1.54436 2.37621
6034 1 2.45664 2.01289 2.39082
5719 1 3.05908 1.87039 2.57839
890 1 3.51457 1.84554 2.49954
1258 1 4.01648 2.13152 2.57236
293 1 3.98163 1.54512 2.57103
2262 1 4.68519 1.60424 2.40655
4395 1 4.56782 1.95262 2.70628
5064 1 0.572907 2.53608 2.5056
3959 1 0.0508806 2.40581 2.23928
385 1 0.908353 2.29772 2.6385
255 1 1.13186 2.64081 2.39286
2674 1 1.74849 2.30027 2.19078
2045 1 1.66512 2.67934 2.42775
4014 1 2.17452 2.57754 2.1849
3830 1 2.71432 2.33377 2.50581
4663 1 2.84651 2.7815 2.79896
6071 1 2.25872 2.45454 2.7715
1886 1 2.54768 2.85063 2.14488
4135 1 3.25505 2.35402 2.43316
3989 1 3.51774 2.48173 2.4335
737 1 4.08096 2.58298 2.83628
2250 1 4.15314 2.34194 2.1729
5024 1 3.65939 2.74792 2.82487
977 1 4.82403 2.22605 2.36195
5507 1 4.45627 2.68753 2.52969
5489 1 0.657718 3.32166 2.19098
3749 1 0.446464 3.10358 2.50509
4968 1 0.0258869 3.40517 2.65062
6789 1 0.978768 2.87936 2.66709
4415 1 1.33597 3.23841 2.63499
2132 1 1.95155 3.34968 2.28153
1811 1 2.22214 2.97396 2.67566
2174 1 2.56123 3.34161 2.72059
2457 1 2.23338 3.32133 2.18756
4568 1 3.02007 2.89457 2.26457
4828 1 2.87425 3.40531 2.43092
2471 1 3.44902 3.24081 2.32135
2463 1 3.34614 3.48947 2.82977
2630 1 3.20273 3.04326 2.84691
256 1 4.22173 3.30465 2.54857
2335 1 3.87945 3.01598 2.41638
4257 1 4.57689 3.28651 2.19732
5749 1 4.92361 3.19402 2.59259
3516 1 0.242972 3.99354 2.17878
108 1 0.470618 4.10042 2.66735
559 1 0.516155 3.66857 2.58253
4818 1 1.08795 3.72936 2.34104
6479 1 1.22269 4.08388 2.4539
3459 1 1.71108 3.92475 2.17552
834 1 1.77288 3.82157 2.64992
6822 1 2.30531 3.95517 2.3278
408 1 2.53097 3.87984 2.78507
361 1 3.53077 4.03511 2.39855
510 1 3.06677 3.92498 2.62275
3162 1 3.21425 3.5893 2.15392
3938 1 3.83087 3.79782 2.34391
2124 1 4.32035 4.08189 2.76855
662 1 4.59897 3.8897 2.35334
5603 1 4.85172 3.64821 2.61068
4238 1 0.169595 4.63386 2.4643
4104 1 0.377009 4.87156 2.81202
5386 1 0.751638 4.94005 2.30514
50 1 1.12919 4.63906 2.56633
1591 1 0.739933 4.37898 2.63889
6676 1 1.73494 4.52454 2.71235
4103 1 2.06158 4.83054 2.83927
1987 1 1.87487 4.36556 2.33138
3640 1 2.51631 4.57125 2.60121
183 1 2.31646 4.57267 2.21137
810 1 3.04481 4.41941 2.65739
4012 1 2.95629 4.71261 2.22577
6223 1 3.85156 4.82685 2.3968
1810 1 4.12523 4.3338 2.21371
684 1 3.73117 4.4992 2.6995
4553 1 4.87449 4.46982 2.42887
5660 1 4.38613 4.47263 2.49014
3135 1 4.86458 4.90649 2.16171
72 1 4.45103 4.90326 2.16167
472 1 0.637219 0.281679 3.51578
345 1 0.150043 0.444835 3.4996
700 1 0.278744 0.00417026 3.02583
655 1 0.58176 0.558232 2.86128
4845 1 1.16467 0.684774 2.86649
6811 1 1.07372 0.366934 3.21936
762 1 1.71951 0.355424 3.25667
331 1 2.65107 0.643117 3.15328
3277 1 2.81467 0.331457 3.27941
3923 1 2.23516 0.517641 2.92457
6326 1 3.35597 0.511675 3.15288
6065 1 3.72093 0.439864 3.4567
1652 1 4.24751 0.075406 3.45146
1309 1 4.09839 0.12324 3.08257
3756 1 4.89848 0.537532 3.1495
822 1 4.40083 0.563803 3.35946
1041 1 4.83946 0.0879156 3.2539
4592 1 0.119658 1.34679 3.50418
1401 1 0.305622 0.909319 3.28572
6241 1 0.686426 1.42003 3.47374
5399 1 0.8411 0.793496 3.46926
546 1 0.827652 1.04749 3.23132
12 1 2.08441 0.859173 3.44302
924 1 1.82591 0.903973 3.082
6135 1 1.48505 1.19779 3.07437
71 1 2.6084 1.19876 3.40973
6717 1 2.26989 1.41847 2.95754
751 1 2.83468 1.16123 3.19904
3493 1 3.34652 1.41378 3.43155
2523 1 3.48358 1.29504 2.91765
579 1 3.31573 0.872668 3.12237
4701 1 3.97404 0.828014 3.05864
1691 1 3.97425 1.11413 3.21833
3615 1 4.54476 1.22878 3.30105
133 1 0.333723 2.13599 3.39591
6370 1 0.269907 2.12576 2.98833
2757 1 0.454239 1.52589 3.01255
576 1 1.27773 2.02388 3.23274
4093 1 1.16437 1.47493 3.47328
1635 1 0.975193 1.68261 2.89219
3506 1 1.62593 1.95534 3.31039
5375 1 1.6136 1.59052 2.93128
1641 1 1.81662 1.49538 3.45999
1217 1 2.80303 1.46142 2.85985
750 1 2.77181 1.79967 3.17552
187 1 2.18247 1.93424 2.99901
160 1 3.35018 1.66074 3.08327
237 1 3.32041 2.00697 3.50282
2100 1 4.12744 1.60172 3.07853
807 1 3.70528 2.02865 3.07327
3022 1 3.9548 1.8371 3.43353
828 1 4.97554 2.08975 3.25777
658 1 4.61817 1.66661 3.11716
435 1 0.286818 2.6093 3.56924
972 1 0.388405 2.709 2.99525
176 1 0.857994 2.81442 3.16727
62 1 0.960067 2.29878 3.05402
527 1 1.71501 2.399 2.94139
730 1 1.50633 2.75327 3.02932
2759 1 1.43052 2.48142 3.53019
5483 1 2.71954 2.20492 3.06441
928 1 2.22442 2.26369 3.40788
231 1 3.10503 2.74428 3.46788
1326 1 3.17129 2.35953 2.99062
375 1 3.5992 2.36456 3.33921
1505 1 3.98181 2.6639 3.44182
672 1 4.99903 2.43011 2.88123
259 1 4.65274 2.75495 2.95929
5669 1 4.38605 2.31916 3.1243
5898 1 4.55858 2.37968 3.37972
5631 1 0.485941 3.12707 3.01225
4364 1 0.020704 3.28729 3.16462
1369 1 0.899546 3.39758 2.86493
6206 1 0.92867 3.39514 3.50267
1415 1 1.25664 3.08711 3.32029
2386 1 2.10285 3.45962 3.092
4850 1 1.66722 3.1932 2.86122
1083 1 1.69551 3.32784 3.49049
400 1 2.59818 2.87798 3.19422
2273 1 2.46225 3.49683 3.36075
4289 1 2.26233 2.89354 3.25599
944 1 3.20652 3.12779 3.51452
353 1 2.87806 3.38743 3.29196
3934 1 4.2261 3.10393 3.16426
685 1 3.74447 3.56803 2.92254
4806 1 3.76701 3.02821 3.22739
115 1 4.08655 3.39577 3.45663
896 1 4.72715 3.51263 3.02807
4348 1 4.91838 3.06992 3.29408
4405 1 0.409671 3.58296 3.4225
4900 1 0.483338 3.78824 3.07547
713 1 1.42412 4.27798 2.93603
4417 1 0.956458 3.89674 3.09095
2168 1 1.51445 3.71791 3.10063
4653 1 2.10159 4.21019 2.90687
1129 1 1.99544 4.00601 3.22974
2912 1 2.50529 4.12191 3.47705
3883 1 3.53789 4.259 3.05464
1744 1 3.55559 4.04043 3.03569
2309 1 2.91866 3.86724 3.19316
488 1 3.39136 3.62492 3.44168
3819 1 4.15167 4.12449 3.38684
4225 1 4.19624 3.8529 2.92504
3867 1 4.69557 4.20951 3.20204
960 1 4.52891 3.67989 3.4721
6769 1 4.97963 4.11811 3.03097
849 1 0.266325 4.40009 3.08243
3324 1 0.519129 4.39362 3.31501
6256 1 0.65437 4.82783 3.47712
336 1 0.77086 4.96994 2.95899
2155 1 1.01145 4.38593 3.35309
5384 1 2.05478 4.65814 3.35602
5985 1 1.59485 4.30082 3.44654
5230 1 1.43679 4.76542 3.13779
2466 1 2.54294 4.55206 3.17326
2906 1 3.1397 4.89762 3.31591
2088 1 3.5656 4.90949 3.1001
2078 1 2.92881 4.37832 3.11116
5770 1 4.03041 4.67101 3.14918
452 1 4.50522 4.63488 3.02626
2213 1 4.84416 4.85512 2.94102
2636 1 4.81017 4.89889 3.53802
6555 1 0.479237 0.357613 4.06769
6185 1 1.16785 0.0386161 3.78978
5032 1 1.01789 0.257102 3.96649
4917 1 1.31582 0.471639 4.26403
733 1 1.80177 0.0160316 4.06525
6214 1 1.57809 0.427995 3.62318
6084 1 2.3812 0.431615 4.21864
161 1 2.48449 0.0826674 3.68019
450 1 2.15639 0.359809 3.60394
668 1 2.84831 0.0397042 4.06268
1038 1 2.5682 0.713283 3.70328
509 1 3.12557 0.328093 3.69983
444 1 3.36414 0.406529 4.1707
4274 1 4.10156 0.407829 3.85112
2663 1 3.70735 0.172123 4.05816
5886 1 4.37796 0.585663 4.17154
6109 1 4.66363 0.446952 3.94726
768 1 0.523666 1.18933 3.9167
3693 1 0.0693323 1.38255 4.17558
1361 1 0.300277 0.849156 3.81997
6880 1 1.40722 0.927245 3.62894
199 1 1.32142 1.05141 4.26577
5011 1 1.03056 0.788164 4.00397
2389 1 1.87335 0.787882 4.06869
2697 1 1.74053 1.11323 3.8853
2872 1 2.45335 0.916094 4.04758
2010 1 2.23285 1.37338 4.0472
723 1 3.55378 0.980875 3.75486
2323 1 2.93376 1.16645 3.8534
3575 1 3.08676 0.800337 3.69123
4593 1 2.93497 1.14376 4.26786
3512 1 4.10108 0.773027 3.70707
752 1 4.22296 1.23707 3.66481
3581 1 3.9552 1.04731 4.23131
1240 1 4.89396 1.10444 4.12777
60 1 4.68313 0.845571 3.58134
2261 1 0.143888 1.73718 3.98909
4278 1 0.644755 1.93427 3.61719
852 1 0.736003 1.80367 4.20702
3826 1 1.01875 1.50139 3.94429
2042 1 1.13439 2.13761 3.84427
2732 1 1.56811 1.58087 3.9748
3203 1 1.70148 1.9717 3.89925
4186 1 2.84288 1.70747 3.59149
5865 1 2.39481 1.65955 3.66894
100 1 2.1625 1.87207 3.9869
3632 1 2.83829 1.76784 4.02917
613 1 3.48966 1.47436 4.20651
6014 1 3.51763 1.96299 3.98631
1114 1 3.61836 1.44036 3.69342
430 1 4.15891 1.73711 4.05762
4226 1 4.5508 1.63079 3.60108
330 1 4.68845 2.02379 3.71519
4365 1 4.67269 1.52746 4.14964
4958 1 0.0507351 2.71602 4.10537
5763 1 0.632877 2.4404 4.17847
712 1 0.141377 2.37904 3.95938
2940 1 0.886568 2.59331 3.75728
1567 1 2.06031 2.67024 3.95493
817 1 1.53815 2.80178 3.81901
6293 1 2.80452 2.17452 4.03795
3960 1 2.2369 2.25281 4.23684
3345 1 2.46109 2.2357 3.60891
926 1 3.48189 2.51402 3.94245
5703 1 2.86911 2.4476 3.57635
1600 1 2.87704 2.52795 4.14715
2782 1 4.25929 2.68062 3.97636
1375 1 3.99236 2.17646 3.77831
5702 1 4.7209 2.48046 4.04046
244 1 0.480426 3.09383 3.67097
2690 1 0.159386 3.27651 4.199
1533 1 0.442654 2.98551 4.07245
42 1 0.995112 3.43706 4.04645
5931 1 1.13605 2.8963 4.11099
3900 1 1.499 3.54534 3.86497
4283 1 1.99956 3.47693 4.25607
312 1 2.0767 3.1034 3.84571
3689 1 2.67563 3.01912 3.84427
4101 1 2.39708 3.49932 4.01899
2391 1 3.12858 3.16249 4.07966
552 1 3.7886 3.2769 3.83078
5574 1 3.67821 2.92703 3.85988
4458 1 4.16344 3.1641 4.22808
6032 1 4.40667 2.90613 3.65854
727 1 4.46055 3.31345 4.01717
790 1 4.84982 2.94194 4.19684
3498 1 0.0573441 4.22871 3.61513
4005 1 0.18665 3.90731 3.7727
4423 1 0.647373 3.66263 4.06193
6477 1 0.118834 3.8367 4.28571
4117 1 0.811582 4.06582 3.74945
4749 1 1.07578 4.08971 4.19137
4150 1 1.2302 3.78974 3.60604
1879 1 1.90621 3.85207 3.6205
2557 1 1.50516 4.24982 4.04084
914 1 1.85558 3.81584 4.21525
4700 1 2.17872 4.15894 4.09334
6348 1 2.56098 3.72414 3.76914
1845 1 2.93076 4.24571 3.69151
442 1 3.37018 4.09575 3.72715
2589 1 2.96312 3.90272 4.2224
1273 1 3.42109 4.1382 4.16525
2473 1 3.00744 3.65771 3.78838
4160 1 3.41045 3.57533 4.07339
771 1 3.94913 3.82705 4.18299
2291 1 3.91146 3.88968 3.6048
3243 1 4.97869 3.69908 3.64004
355 1 4.96186 4.11504 3.57695
4561 1 4.33552 3.76765 4.01083
913 1 4.62088 4.0882 4.08055
6493 1 0.254272 4.58253 3.8502
3550 1 0.322612 4.29238 4.2728
346 1 1.11772 4.66155 4.27708
5224 1 1.34988 4.72825 3.68318
3025 1 0.795341 4.56925 3.94157
5462 1 2.11746 4.32745 3.7016
3991 1 1.68834 4.60327 4.14411
4710 1 1.77937 4.96095 3.72894
1166 1 2.76073 4.41077 4.09608
2879 1 2.23814 4.90936 4.08853
2768 1 2.58541 4.77767 3.66901
5521 1 3.2717 4.72711 3.7249
2720 1 3.22063 4.5538 4.18644
2080 1 3.63408 4.96086 4.18451
734 1 3.65941 4.46324 3.66986
800 1 4.02266 4.41607 3.98676
2660 1 3.91043 4.85811 4.01284
659 1 4.48555 4.87964 4.07787
1066 1 4.45906 4.47359 3.69284
1010 1 0.576202 0.67092 4.34954
920 1 0.167991 0.35059 4.60261
590 1 0.621421 0.103992 4.90274
2817 1 0.765146 0.0295532 4.34914
541 1 1.0381 0.378479 4.74982
6508 1 1.70509 0.368938 4.39951
2814 1 2.03587 0.144322 4.99672
2696 1 1.81823 0.583224 4.88945
891 1 2.20593 0.164026 4.29213
1200 1 2.72677 0.193143 4.59529
365 1 3.2308 0.165496 4.64014
1350 1 3.28803 0.553854 4.85461
5819 1 2.92702 0.575353 4.29936
2831 1 3.76476 0.223182 4.76322
4847 1 3.83301 0.539927 4.31316
2207 1 4.87492 0.419431 4.54832
4258 1 4.3943 0.312753 4.60085
4611 1 4.53037 0.0699951 4.93803
3594 1 0.422547 0.974739 4.44637
6429 1 0.383278 1.37714 4.99386
2847 1 1.19035 0.729846 4.81795
6141 1 0.917997 1.37236 4.59144
2860 1 1.31483 1.40896 4.88506
3322 1 0.766585 0.851796 4.8396
457 1 1.59905 1.02673 4.71805
631 1 1.87981 1.22898 4.45425
5107 1 2.8365 0.855035 4.70339
780 1 2.24585 1.23967 4.93705
372 1 2.27446 0.814051 4.55405
30 1 3.41279 0.960549 4.43134
4314 1 3.18311 1.27656 4.85455
947 1 4.02139 0.921478 4.77836
3681 1 4.49475 0.973081 4.33959
4545 1 4.65162 0.960945 4.82715
3189 1 4.9883 1.41862 4.90642
6288 1 0.494441 1.54068 4.64452
514 1 0.25782 2.13211 4.48557
6358 1 0.614175 1.98345 4.89196
2861 1 1.04933 1.87905 4.97906
4319 1 1.36311 1.81938 4.31579
894 1 1.73036 2.04323 4.61797
5635 1 2.00643 1.67121 4.46021
1372 1 2.5442 1.47961 4.82854
2084 1 2.54404 1.50497 4.34087
511 1 2.653 2.08789 4.55133
6552 1 2.17626 2.09701 4.84818
5556 1 3.13017 1.53181 4.60488
3922 1 3.16829 2.09575 4.59616
620 1 4.19016 1.50144 4.31713
591 1 3.69532 1.44398 4.5858
2973 1 3.72604 1.89636 4.6787
3939 1 4.88108 1.50226 4.63068
305 1 4.41554 1.97574 4.80872
4825 1 4.58742 2.08123 4.47089
3963 1 4.34624 1.48903 4.75661
4937 1 0.385309 2.49916 4.73067
517 1 1.29642 2.41451 4.3092
2839 1 0.953939 2.30347 4.51065
2868 1 0.975772 2.83417 4.69452
563 1 1.82278 2.60605 4.36632
6660 1 1.52671 2.27134 4.90124
1085 1 2.82008 2.71242 4.69665
1021 1 2.35455 2.58284 4.56625
4163 1 3.55605 2.54262 4.73176
505 1 3.04601 2.84531 4.93699
1603 1 3.30268 2.46323 4.29608
5655 1 4.03359 2.18743 4.3166
369 1 3.99303 2.54906 4.87296
917 1 4.09377 2.56461 4.34842
5990 1 4.55176 2.59404 4.53117
5911 1 4.93994 2.36007 4.99295
6349 1 0.441055 2.96958 4.78933
6803 1 1.11528 3.31936 4.72631
6310 1 0.775432 3.21079 4.41057
6511 1 1.51894 3.29974 4.97107
4672 1 1.72081 2.91475 4.65509
4729 1 1.65036 3.16335 4.31217
4138 1 2.44855 2.97068 4.34786
6359 1 2.15228 3.24646 4.69979
1390 1 2.33741 3.15013 4.94098
989 1 3.41997 3.05483 4.68879
6422 1 3.50496 3.52692 4.53788
507 1 2.86777 3.23233 4.32803
1077 1 2.97505 3.38292 4.91226
4657 1 4.05907 3.05461 4.75145
6097 1 3.67986 2.89971 4.34011
4107 1 4.58467 3.1083 4.66557
3758 1 0.428765 3.59265 4.67085
3976 1 0.108316 4.02226 4.90423
243 1 0.592177 4.25472 4.46897
4517 1 0.755902 3.81885 4.61183
193 1 1.20826 3.75706 4.47054
2198 1 1.70191 4.25355 4.73064
204 1 1.7714 3.88761 4.83603
5598 1 2.65375 4.09919 4.88435
6575 1 2.66252 3.60467 4.44834
6239 1 2.44741 3.91653 4.51391
872 1 3.33307 4.26219 4.73206
1073 1 3.23832 3.8386 4.7135
4636 1 3.85999 4.05148 4.86955
1379 1 4.27998 4.0852 4.77697
6363 1 3.84577 3.64407 4.6178
476 1 4.96538 3.87641 4.6593
2900 1 4.52093 3.58877 4.58197
4529 1 0.242972 4.3517 4.86423
5321 1 0.376554 4.82947 4.30699
343 1 0.66541 4.63987 4.66073
3063 1 1.34236 4.40469 4.63464
4582 1 1.03382 4.39152 4.92723
942 1 1.7485 4.8855 4.42384
1497 1 2.10033 4.4634 4.53526
1639 1 1.47145 4.89186 4.76902
3041 1 2.59627 4.45835 4.9806
5338 1 2.53788 4.73526 4.41133
1082 1 2.60129 4.92725 4.9847
1115 1 2.93513 4.33205 4.54747
755 1 3.20496 4.84067 4.79809
4410 1 3.81375 4.49561 4.6246
2472 1 3.73535 4.89805 4.66403
3403 1 4.86869 4.54931 4.76605
3723 1 4.43582 4.79202 4.4617
2969 1 4.45192 4.30805 4.43504
600 1 0.153647 0.632783 5.57538
2381 1 0.417313 0.0362179 5.71221
5820 1 0.644804 0.343972 5.26054
4581 1 0.0508363 0.0807879 5.42041
3806 1 0.177257 0.654028 5.05416
5994 1 0.949604 0.518106 5.50478
1308 1 1.3475 0.433679 5.17084
2259 1 1.40053 0.100347 5.01582
1880 1 1.88653 0.265801 5.39867
4817 1 2.7695 0.360047 5.22139
516 1 2.49288 0.679329 5.00852
3293 1 2.18092 0.660506 5.47744
6001 1 3.53742 0.470056 5.4371
1092 1 3.11798 0.259393 5.28723
5708 1 3.9563 0.480613 5.58599
2963 1 3.90514 0.564578 5.08919
1132 1 4.20925 0.0881435 5.42578
4509 1 4.80605 0.179719 5.29609
171 1 4.45971 0.569874 5.18198
2509 1 0.540016 0.997341 5.51853
902 1 0.0927832 1.21691 5.58011
4461 1 1.28414 1.25086 5.59507
664 1 0.784098 1.30845 5.22997
3225 1 1.20489 0.90222 5.35198
3397 1 1.76259 1.12431 5.23835
5109 1 2.4711 1.22049 5.3695
4149 1 2.88689 0.965652 5.27918
4123 1 3.01655 0.797844 5.65539
4316 1 3.28648 1.37893 5.66592
1218 1 3.47584 1.05742 5.14521
560 1 4.13563 1.1267 5.1181
1382 1 3.70983 1.38172 5.10223
3955 1 4.17063 0.993517 5.54538
5558 1 4.78413 0.907173 5.32836
4823 1 0.673982 1.92752 5.61338
3544 1 0.436294 1.7356 5.45763
636 1 1.07429 1.91709 5.42251
233 1 1.39283 1.71108 5.476
786 1 1.69617 2.1308 5.25217
4002 1 1.76347 1.60042 5.03713
4223 1 2.35973 2.08163 5.51217
6023 1 2.84057 1.62732 5.52348
2546 1 2.22241 1.71662 5.44075
5895 1 2.64539 1.76666 5.08025
6150 1 3.3761 1.82272 5.17476
991 1 3.22706 2.07443 5.61682
6025 1 3.95459 1.8015 5.19679
4273 1 3.66695 1.89697 5.71424
2951 1 4.23127 1.86178 5.42246
4211 1 4.89615 1.94207 5.10702
180 1 4.56318 1.51796 5.23355
2023 1 4.8237 2.04087 5.67185
905 1 0.555039 2.38416 5.28682
4861 1 0.0779333 2.34431 5.36575
1048 1 1.07389 2.85312 5.43632
6369 1 0.978747 2.48803 5.1273
6735 1 1.33693 2.41682 5.50213
654 1 1.47622 2.77504 5.18402
1072 1 1.90342 2.23122 5.62072
4105 1 1.96028 2.82942 5.53898
1884 1 2.04119 2.59184 5.02609
4253 1 2.76227 2.32577 5.09387
4098 1 2.6345 2.82329 5.7064
683 1 2.36764 2.52581 5.22829
6669 1 3.07078 2.39541 5.46083
1202 1 3.52528 2.40237 5.11045
6038 1 3.93331 2.34769 5.59775
1173 1 4.1654 2.81625 5.37843
4671 1 4.36734 2.3546 5.06039
4983 1 4.70926 2.41901 5.47714
2290 1 0.500652 2.96721 5.18282
6011 1 0.112718 3.40085 5.15127
1602 1 0.810296 3.46281 5.20554
681 1 1.19804 3.53398 5.40907
1555 1 1.60745 3.21049 5.6274
1725 1 1.88718 3.28072 5.3329
6277 1 2.59905 3.53632 5.24264
4726 1 2.36973 3.18101 5.60671
2992 1 2.89073 2.9959 5.36317
3037 1 3.28869 3.0072 5.37173
1112 1 3.95562 3.48238 5.56999
626 1 3.6906 2.94918 5.33984
5474 1 3.91638 3.45097 5.03443
2880 1 4.91967 3.45051 5.19774
2294 1 4.42569 3.30106 5.68376
6012 1 4.51601 2.91332 5.15232
1163 1 4.98372 2.99847 5.50677
5608 1 0.512779 3.81495 5.36214
4649 1 1.33479 3.86161 5.02637
6814 1 0.943922 4.01981 5.56312
2452 1 0.768056 4.08626 5.22609
5953 1 2.08257 3.73522 5.2164
3948 1 1.63298 4.01449 5.4678
1388 1 2.84717 3.97751 5.69882
5509 1 2.39727 3.90595 5.42871
1261 1 3.54321 3.74639 5.6972
1692 1 3.52035 3.97914 5.2146
1079 1 3.43766 3.59061 5.19435
602 1 3.03534 3.75997 5.2594