LAMMPS (23 Jun 2022 - Update 3)
OMP_NUM_THREADS environment is not set. Defaulting to 1 thread. (src/comm.cpp:98)
  using 1 OpenMP thread(s) per MPI task
units lj
dimension 3
boundary p p p
neighbor 0.4 bin
neigh_modify every 1 delay 0 check yes
# comm_modify mode single cutoff 2.5 vel yes
comm_modify vel yes


atom_style hybrid angle mdpd charge


region     box      block 0 10 0 10 0 10
create_box 4 box bond/types 1 angle/types 1 	extra/special/per/atom 3 	extra/bond/per/atom 2 	extra/angle/per/atom 2
Created orthogonal box = (0 0 0) to (10 10 10)
  2 by 2 by 2 MPI processor grid


molecule 1 sds.txt
Read molecule template 1:
  1 molecules
  0 fragments
  4 atoms with max type 2
  3 bonds with max type 1
  2 angles with max type 1
  0 dihedrals with max type 0
  0 impropers with max type 0

# create_atoms     0 random 200 2345 box mol 1 12345
# create_atoms     3 random 200 1234 box
# create_atoms     4 random 797 12458 box
# create_atoms     4 random 1062 125 box

create_atoms     0 random 1000 2345 box mol 1 12345
Created 4000 atoms
  using lattice units in orthogonal box = (0 0 0) to (10 10 10)
  create_atoms CPU = 0.001 seconds
create_atoms     3 random 1000 1234 box
Created 1000 atoms
  using lattice units in orthogonal box = (0 0 0) to (10 10 10)
  create_atoms CPU = 0.000 seconds
create_atoms     4 random 3985 12458 box
Created 3985 atoms
  using lattice units in orthogonal box = (0 0 0) to (10 10 10)
  create_atoms CPU = 0.000 seconds

mass * 1

pair_style hybrid/overlay mdpd/rhosum mdpd 1.0 1.0 65689 coul/long 2.0
# pair_style hybrid/overlay mdpd/rhosum mdpd 1.0 1.0 65689
pair_coeff  *  *   mdpd/rhosum  0.75

# Adds one more property to the atoms, q = charge
# ghost yes is necessary for computational stuff

# dielectric 80

kspace_style pppm 1.0e-5
kspace_modify order 4 mesh 20 20 20

set type 1 charge  -1
Setting atom values ...
  1000 settings made for charge
set type 3 charge  1
Setting atom values ...
  1000 settings made for charge
pair_coeff  1*3  1*3 coul/long

# 1 - Qa (SDS-H)
# 2 - C1
# 3 - Qd (Na)
# 4 - W

variable gamma equal 0 # 4.5

pair_coeff  1  1   mdpd  -30.0  25.0  $(v_gamma)  1.0  0.75
pair_coeff  1  1   mdpd  -30.0  25.0  0  1.0  0.75
pair_coeff  1  2   mdpd  -26.0  25.0  $(v_gamma)  1.0  0.75
pair_coeff  1  2   mdpd  -26.0  25.0  0  1.0  0.75
pair_coeff  1  3   mdpd  -30.0  25.0  $(v_gamma)  1.0  0.75
pair_coeff  1  3   mdpd  -30.0  25.0  0  1.0  0.75
pair_coeff  1  4   mdpd  -50.0  25.0  $(v_gamma)  1.0  0.75
pair_coeff  1  4   mdpd  -50.0  25.0  0  1.0  0.75

pair_coeff  2  2   mdpd  -26.0  25.0  $(v_gamma)  1.0  0.75
pair_coeff  2  2   mdpd  -26.0  25.0  0  1.0  0.75
pair_coeff  2  3   mdpd  -26.0  25.0  $(v_gamma)  1.0  0.75
pair_coeff  2  3   mdpd  -26.0  25.0  0  1.0  0.75
pair_coeff  2  4   mdpd  -26.0  25.0  $(v_gamma)  1.0  0.75
pair_coeff  2  4   mdpd  -26.0  25.0  0  1.0  0.75

pair_coeff  3  3   mdpd  -30.0  25.0  $(v_gamma)  1.0  0.75
pair_coeff  3  3   mdpd  -30.0  25.0  0  1.0  0.75
pair_coeff  3  4   mdpd  -50.0  25.0  $(v_gamma)  1.0  0.75
pair_coeff  3  4   mdpd  -50.0  25.0  0  1.0  0.75

pair_coeff  4  4   mdpd  -50.0  25.0  $(v_gamma)  1.0  0.75
pair_coeff  4  4   mdpd  -50.0  25.0  0  1.0  0.75


# special_bonds lj 0 1 1

bond_style harmonic
bond_coeff 1 150 0.5

angle_style harmonic
angle_coeff 1 5 180


write_data initial.data
System init for write_data ...
PPPM initialization ...
  using 12-bit tables for long-range coulomb (src/kspace.cpp:342)
  G vector (1/distance) = 1.1546787
  grid = 20 20 20
  stencil order = 4
  estimated absolute RMS force accuracy = 0.006441851
  estimated relative force accuracy = 0.006441851
  using double precision KISS FFT
  3d grid and FFT values/proc = 3375 1200
Generated 0 of 6 mixed pair_coeff terms from geometric mixing rule
Neighbor list info ...
  update every 1 steps, delay 0 steps, check yes
  max neighbors/atom: 2000, page size: 100000
  master list distance cutoff = 2.4
  ghost atom cutoff = 2.4
  binsize = 1.2, bins = 9 9 9
  3 neighbor lists, perpetual/occasional/extra = 3 0 0
  (1) pair mdpd/rhosum, perpetual
      attributes: full, newton on
      pair build: full/bin
      stencil: full/bin/3d
      bin: standard
  (2) pair mdpd, perpetual, half/full from (1)
      attributes: half, newton on
      pair build: halffull/newton
      stencil: none
      bin: none
  (3) pair coul/long, perpetual, skip from (2)
      attributes: half, newton on
      pair build: skip
      stencil: none
      bin: none
dump        mydump  all atom 2000 sds.lammpstrj

min_style cg
minimize 0 0 1000 10000

CITE-CITE-CITE-CITE-CITE-CITE-CITE-CITE-CITE-CITE-CITE-CITE-CITE

Your simulation uses code contributions which should be cited:

- pair mdpd command:

@Article{ZLi2013_POF,
 author = {Li, Z. and Hu, G.H. and Wang, Z.L. and Ma Y.B. and Zhou, Z.W.},
 title = {Three dimensional flow structures in a moving droplet on substrate: a dissipative particle dynamics study},
 journal = {Physics of Fluids},
 year = {2013},
 volume = {25},
 pages = {072103}
}

CITE-CITE-CITE-CITE-CITE-CITE-CITE-CITE-CITE-CITE-CITE-CITE-CITE

PPPM initialization ...
  using 12-bit tables for long-range coulomb (src/kspace.cpp:342)
  G vector (1/distance) = 1.1546787
  grid = 20 20 20
  stencil order = 4
  estimated absolute RMS force accuracy = 0.006441851
  estimated relative force accuracy = 0.006441851
  using double precision KISS FFT
  3d grid and FFT values/proc = 3375 1200
Generated 0 of 6 mixed pair_coeff terms from geometric mixing rule
Per MPI rank memory allocation (min/avg/max) = 12.75 | 12.77 | 12.78 Mbytes
   Step          Temp          E_pair         E_mol          TotEng         Press     
         0   0              52.311894      1.2850662e-17  52.311894      1070.7101    
        11   0             -2.5077226      1.2558939     -1.2518287      327.61104    
Loop time of 0.317058 on 8 procs for 11 steps with 8985 atoms

98.6% CPU use with 8 MPI tasks x 1 OpenMP threads

Minimization stats:
  Stopping criterion = linesearch alpha is zero
  Energy initial, next-to-last, final = 
      52.3118935086176  -1.28166235560527  -1.25182873052327
  Force two-norm initial, final = 76575.596 3046.0191
  Force max component initial, final = 4219.8623 94.649715
  Final line search alpha, max atom move = 7.8717412e-12 7.4505806e-10
  Iterations, force evaluations = 11 40

MPI task timing breakdown:
Section |  min time  |  avg time  |  max time  |%varavg| %total
---------------------------------------------------------------
Pair    | 0.16554    | 0.17561    | 0.18317    |   1.4 | 55.39
Bond    | 0.00081214 | 0.00085117 | 0.00090272 |   0.0 |  0.27
Kspace  | 0.025612   | 0.03373    | 0.043885   |   3.4 | 10.64
Neigh   | 0.041709   | 0.042011   | 0.042283   |   0.1 | 13.25
Comm    | 0.056476   | 0.057375   | 0.058234   |   0.3 | 18.10
Output  | 0          | 0          | 0          |   0.0 |  0.00
Modify  | 0          | 0          | 0          |   0.0 |  0.00
Other   |            | 0.007481   |            |       |  2.36

Nlocal:        1123.12 ave        1153 max        1088 min
Histogram: 1 1 1 0 0 0 0 4 0 1
Nghost:        7339.75 ave        7372 max        7310 min
Histogram: 2 1 0 0 1 1 1 0 0 2
Neighs:         130363 ave      136887 max      121141 min
Histogram: 1 0 2 0 0 0 1 1 1 2
FullNghs:       260726 ave      273908 max      241137 min
Histogram: 1 0 1 1 0 0 1 1 1 2

Total # of neighbors = 2085804
Ave neighs/atom = 232.1429
Ave special neighs/atom = 1.3355593
Neighbor list builds = 4
Dangerous builds = 0

velocity all create 1.0 220 dist gaussian
velocity all zero linear

thermo              100
timestep            0.01

# fix mom all momentum 1000 linear 1 1 1

fix fxnpt all npt temp 1.2 1.2 $(100*dt) tchain 1 iso 0.1 0.1 $(1000*dt) drag 1 mtk yes
fix fxnpt all npt temp 1.2 1.2 1 tchain 1 iso 0.1 0.1 $(1000*dt) drag 1 mtk yes
fix fxnpt all npt temp 1.2 1.2 1 tchain 1 iso 0.1 0.1 10 drag 1 mtk yes
run 500000
PPPM initialization ...
  using 12-bit tables for long-range coulomb (src/kspace.cpp:342)
  G vector (1/distance) = 1.1546787
  grid = 20 20 20
  stencil order = 4
  estimated absolute RMS force accuracy = 0.006441851
  estimated relative force accuracy = 0.006441851
  using double precision KISS FFT
  3d grid and FFT values/proc = 3375 1200
Generated 0 of 6 mixed pair_coeff terms from geometric mixing rule
Per MPI rank memory allocation (min/avg/max) = 11.63 | 11.69 | 12.04 Mbytes
   Step          Temp          E_pair         E_mol          TotEng         Press          Volume    
        11   1             -2.4692361      1.2558939      0.28649083     336.59504      1000         
       100   3.3622081      4.9868546      5.2748883      15.304494      189.07785      1096.7267    
       200   2.0864733     -2.7363636      3.2005124      3.5935105      115.26038      1178.9553    
       300   1.7383879     -6.5717949      1.9114616     -2.0530416      79.053385      1248.708     
       400   1.6670172     -8.2364313      1.1785849     -4.557599       55.494376      1310.6286    
       500   1.6140379     -8.8405434      0.9037062     -5.5160498      37.0454        1364.8325    
       600   1.5805828     -9.122082       0.81377109    -5.9377006      24.797115      1411.3261    
       700   1.5640996     -9.4165938      0.73123292    -6.3394726      16.114505      1450.0809    
       800   1.5399162     -9.581431       0.6772634     -6.5945504      9.9354099      1481.828     
       900   1.5240722     -9.7380904      0.6875699     -6.7646666      5.6357629      1507.5713    
      1000   1.5219793     -9.6924486      0.63513356    -6.7746002      3.7855879      1527.3402    
      1100   1.5111731     -9.6375531      0.65509944    -6.7159464      1.3013812      1541.7069    
      1200   1.4952811     -9.5773704      0.62567012    -6.7090282      1.071625       1551.3962    
      1300   1.4980817     -9.7251003      0.61065435    -6.8675734     -0.39472649     1556.8182    
      1400   1.5047492     -9.7080807      0.61743593    -6.8337723      0.049701066    1558.0768    
      1500   1.5189244     -9.8627422      0.61624323    -6.9683659      0.45757163     1558.0205    
      1600   1.5323945     -9.8333238      0.61602388    -6.9189639     -0.635792       1558.42      
      1700   1.4956404     -9.872858       0.63844904    -6.9911981     -0.34075039     1558.5274    
      1800   1.4911292     -9.8360613      0.62525463    -6.9743619     -0.75336176     1557.759     
      1900   1.5176782     -9.8741891      0.62121434    -6.9767109     -0.34120546     1556.3572    
      2000   1.4917378     -9.7905201      0.63117483    -6.9219877      0.0029368924   1555.359     
      2100   1.5233751     -9.770283       0.59538652    -6.8900881      0.31553871     1554.351     
      2200   1.5103402     -9.8785247      0.62692604    -6.9863405     -0.12383819     1553.4825    
      2300   1.5022952     -9.7919877      0.62523865    -6.913557       0.57607341     1553.1193    
      2400   1.510627      -9.7662209      0.61547313    -6.8850593      0.36994437     1553.0934    
      2500   1.4915874     -9.8024247      0.63363539    -6.9316573      0.16959488     1554.7978    
      2600   1.5239439     -9.8515948      0.62333483    -6.9425986     -0.23351861     1556.6765    
      2700   1.4936706     -9.7713509      0.61444101    -6.9166534      0.4720785      1556.8594    
      2800   1.5022475     -10.032443      0.61169475    -7.167628       0.70018819     1557.1732    
      2900   1.4735256     -9.9706973      0.63466577    -7.1259892     -0.14877733     1557.0881    
      3000   1.5103363     -9.9063878      0.63609258    -7.0050429      0.86796753     1555.2682    
      3100   1.5071797     -9.8464648      0.63519742    -6.9507494      0.069978837    1555.2895    
      3200   1.5027488     -9.8707812      0.63450363    -6.9824053      0.19737681     1556.3642    
      3300   1.5037413     -9.9306162      0.63755326    -7.0377021     -0.97485557     1558.6955    
      3400   1.4949777     -9.925367       0.61561623    -7.0675338     -0.39234808     1560.1786    
      3500   1.4856474     -9.8692793      0.59793722    -7.043119      -0.1312439      1558.5626    
      3600   1.4901029     -9.9130207      0.62886303    -7.049252       0.33238773     1554.8549    
      3700   1.5164365     -9.9932742      0.62554677    -7.0933258      0.35295166     1552.2624    
      3800   1.5129542     -9.8680963      0.61924649    -6.9796711      0.21346119     1551.8626    
      3900   1.4992077     -9.9236121      0.63934929    -7.0357016      0.23013332     1551.875     
      4000   1.4982857     -9.9397858      0.61855438    -7.074053      -0.17796947     1553.7477    
      4100   1.5089717     -9.9352876      0.61644968    -7.0556324     -0.29217218     1555.6148    
      4200   1.4949888     -9.9029559      0.61332994    -7.0473923     -0.33111522     1556.8088    
      4300   1.4993483     -9.8868187      0.63029228    -7.0077543      0.73599952     1557.2837    
      4400   1.492753      -9.9044539      0.63547688    -7.0300967      0.13744367     1557.7065    
      4500   1.4897806     -9.9598899      0.62313651    -7.1023312     -0.22494421     1555.4652    
      4600   1.5009338     -9.9491423      0.60176629    -7.0962259     -0.23820022     1553.3831    
      4700   1.520173      -9.9122231      0.58645228    -7.0457651      0.93890741     1552.6289    
      4800   1.4696149     -9.8753621      0.60711784    -7.0640673     -0.23055979     1552.8589    
      4900   1.4908924     -10.012547      0.60436723    -7.1720906      0.57091808     1551.5602    
      5000   1.5052845     -9.9741692      0.61718236    -7.0993114      0.20054412     1551.6104    
      5100   1.4992011     -9.9657832      0.61712127    -7.1001107      0.24885822     1552.2946    
      5200   1.4823824     -9.9843093      0.62536576    -7.1356174     -0.31158385     1554.0119    
      5300   1.4977967     -9.9959136      0.60646064    -7.143008      -0.006279534    1555.5633    
      5400   1.4989983     -10.001939      0.60255154    -7.1511408      0.20865533     1555.6222    
      5500   1.4918498     -9.9503161      0.62873247    -7.084058       0.68373554     1554.7585    
      5600   1.5017789     -9.907797       0.63834103    -7.0170383      0.53832511     1555.4761    
      5700   1.5134173     -9.9545903      0.62018134    -7.0645356     -0.12100193     1556.4244    
      5800   1.4761743     -9.8596463      0.62874676    -7.0168844      0.33555108     1557.9454    
      5900   1.4990276     -9.9834432      0.63393879    -7.1012133     -0.40062746     1558.8267    
      6000   1.502201      -9.9979827      0.60431029    -7.1406217     -0.7093653      1558.7226    
      6100   1.4912043     -9.9041037      0.61382748    -7.0537187      0.15377526     1556.1011    
      6200   1.4854712     -9.8148401      0.60840889    -6.9784724      0.73518478     1554.2889    
      6300   1.4839716     -9.9357534      0.62198021    -7.0880635     -0.0090668752   1554.1815    
      6400   1.4912874     -10.087539      0.61423523    -7.2366216      0.0096711441   1553.6874    
      6500   1.5076816     -9.9709545      0.62519198    -7.0844918     -0.14103481     1552.6771    
      6600   1.5040088     -9.9740685      0.62467116    -7.0936352      0.60161507     1551.1399    
      6700   1.5034347     -10.067785      0.6194649     -7.1934193      1.3484982      1550.6149    
      6800   1.4948237     -9.9802235      0.63032841    -7.1079092     -0.25567826     1553.1742    
      6900   1.4957516     -10.015571      0.6189127     -7.1532802     -0.10814683     1555.3034    
      7000   1.5056695     -9.9933641      0.60930434    -7.1258069      0.74650605     1556.0692    
      7100   1.492961      -9.9121663      0.61918679    -7.0537873     -0.040189872    1556.2288    
      7200   1.5050744     -9.9327979      0.63596619    -7.0394714     -0.30971064     1554.4941    
      7300   1.4890362     -9.9445769      0.61992019    -7.091351      -0.2081953      1552.8922    
      7400   1.4809053     -10.04526       0.64236826    -7.1817813     -0.094079186    1552.1875    
      7500   1.4959213     -10.051485      0.64537442    -7.1624784      0.15086175     1553.1452    
      7600   1.5129371     -10.089134      0.62802478    -7.1919557     -0.18711934     1556.2942    
      7700   1.504573      -10.023425      0.62540855    -7.1414083     -0.31302292     1558.4291    
      7800   1.5026692     -10.043012      0.63697739    -7.1522813      0.049050893    1557.6574    
      7900   1.5100673     -10.056073      0.62285217    -7.1683716      0.05441979     1555.3271    
      8000   1.4890798     -10.070357      0.6250837     -7.2119021      0.9759759      1552.5561    
      8100   1.4918885     -10.034736      0.62570924    -7.171443       0.078013267    1550.6585    
      8200   1.503758      -10.012983      0.59750254    -7.1600942      0.65869669     1549.9243    
      8300   1.4999583     -10.00028       0.62799851    -7.1225949      0.35136408     1551.0122    
      8400   1.4885429     -10.061232      0.61484635    -7.2138194     -0.092291921    1553.1273    
      8500   1.4930607     -9.973443       0.63196973    -7.1021315     -0.10084034     1553.8754    
      8600   1.4939862     -10.01881       0.62604601    -7.1520343      0.51622045     1554.0309    
      8700   1.5001522     -10.007239      0.62303001    -7.1342308     -0.57564595     1554.549     
      8800   1.5125193     -10.076248      0.63223123    -7.1754904      0.12248982     1553.9305    
      8900   1.5108787     -10.033295      0.59563334    -7.171596      -0.089172121    1553.5467    
      9000   1.4900047     -10.038785      0.63567056    -7.1683563      0.40842884     1551.6436    
      9100   1.498532      -9.9486923      0.62313014    -7.0780144      0.71610365     1549.9685    
      9200   1.4910881     -9.985608       0.64121425    -7.1080106     -0.16997627     1552.0198    
      9300   1.4947328     -10.054687      0.62182288    -7.1910141     -0.0029207878   1554.8195    
      9400   1.4780666     -9.954884       0.61854792    -7.1194829     -0.16713182     1556.7979    
      9500   1.4932396     -10.017419      0.61167887    -7.1661303      0.58775373     1555.5945    
      9600   1.5166392     -10.065075      0.61876386    -7.1716061      0.27687628     1554.1935    
      9700   1.4947705     -10.105751      0.63444627    -7.2293988     -0.046702724    1554.2018    
      9800   1.4985555     -10.03923       0.62265295    -7.168994       0.71550466     1554.7239    
      9900   1.4821136     -10.043837      0.62546046    -7.195453       0.39417268     1555.1003    
     10000   1.4928916     -10.096389      0.62389934    -7.2334016     -0.40029988     1554.5485    
     10100   1.4843603     -10.130581      0.62988037    -7.274408       0.16357256     1551.9067    
     10200   1.4973686     -10.030365      0.63504167    -7.1495206     -0.4876954      1550.0901    
     10300   1.4961707     -10.091489      0.62252952    -7.2249533      0.057165438    1550.7664    
     10400   1.5022573     -10.051501      0.61955962    -7.1788059     -0.36213635     1552.6495    
     10500   1.5012816     -10.133161      0.60680601    -7.2746833     -0.15483198     1553.7111    
     10600   1.5042316     -10.069226      0.59281925    -7.2203107     -0.47075487     1554.0155    
     10700   1.4723654     -10.038041      0.62430245    -7.205436      -0.12237417     1552.1417    
     10800   1.5014553     -10.02967       0.61929574    -7.1584421      0.33808825     1549.3289    
     10900   1.5039197     -10.070173      0.61402893    -7.2005153     -0.15655249     1548.5732    
     11000   1.5079159     -10.070189      0.58831641    -7.2202501      0.39988726     1550.2247    
     11100   1.4845493     -10.010659      0.62120098    -7.1628824      0.55204939     1552.2118    
     11200   1.4857055     -10.055484      0.6210317     -7.206142      -0.57059228     1553.1247    
     11300   1.4926238     -10.031963      0.62037967    -7.172897      -0.67198356     1552.8638    
     11400   1.4865618     -10.056264      0.62184917    -7.2048204      0.17832396     1552.8882    
     11500   1.4974414     -10.034194      0.61020615    -7.178076       0.15151971     1554.4597    
     11600   1.4906796     -9.9898835      0.61958579    -7.1345271     -0.71669754     1555.2892    
     11700   1.5116465     -10.114638      0.63389929    -7.213521       0.16939376     1555.5244    
     11800   1.4847931     -10.071373      0.61509402    -7.229337       0.559823       1555.0804    
     11900   1.4999628     -10.17815       0.63542551    -7.2930308     -0.60607398     1554.3428    
     12000   1.4899322     -10.117453      0.62453702    -7.2582665      0.14921514     1553.0907    
     12100   1.4983253     -10.046664      0.61900588    -7.1804203      0.72408736     1551.5416    
     12200   1.5042736     -9.9663961      0.61958003    -7.0906568      0.2863957      1551.8496    
     12300   1.4833305     -10.08443       0.62618122    -7.233501       0.2045311      1553.9002    
     12400   1.4912141     -9.9265839      0.61975077    -7.070261      -0.77823862     1555.9233    
     12500   1.4959423     -10.033388      0.63959576    -7.150129      -0.39248128     1555.5613    
     12600   1.4901151     -10.091862      0.62612104    -7.2308168      0.22626269     1553.7187    
     12700   1.4991664     -9.9745637      0.61371229    -7.1123521      0.99863324     1551.8176    
     12800   1.5051951     -10.150013      0.61277415    -7.2796976     -0.072047787    1551.0763    
     12900   1.4907041     -10.004627      0.61445197    -7.1543675     -0.080482822    1550.2822    
     13000   1.4847472     -10.043767      0.63483274    -7.1820615      1.3594566      1551.2106    
     13100   1.5025977     -10.186         0.61942515    -7.3129289     -0.53457206     1553.8534    
     13200   1.4876283     -10.076876      0.62665081    -7.2190312      0.057099353    1554.9698    
     13300   1.4932039     -10.038278      0.62975738    -7.1689642      0.80427194     1554.4501    
     13400   1.4964344     -10.085456      0.61359524    -7.2274594      0.68199001     1553.377     
     13500   1.4857475     -9.9982929      0.63865666    -7.1312631      0.75626854     1552.5466    
     13600   1.5018091     -9.9674862      0.62593564    -7.0890876      0.23391257     1553.2736    
     13700   1.4822691     -10.105724      0.63178594    -7.2507817      0.2360784      1553.8526    
     13800   1.4826702     -10.091551      0.60333442    -7.2644587     -0.35721986     1554.2777    
     13900   1.4920837     -10.07238       0.6196976     -7.2148057      0.95470087     1552.7118    
     14000   1.4788406     -10.024369      0.6020992     -7.2042554     -0.20087809     1551.312     
     14100   1.4921385     -10.086066      0.59779729    -7.2503096      0.44014402     1548.5267    
     14200   1.4728903     -9.9834323      0.62908976    -7.1452531      0.88584729     1549.536     
     14300   1.5042726     -10.010862      0.62017528    -7.1345289      1.0321092      1552.9004    
     14400   1.5009544     -10.053501      0.62385984    -7.1784602     -0.78620252     1557.0061    
     14500   1.489354      -9.9658992      0.62367016    -7.1084467     -0.19706352     1557.8967    
     14600   1.4913627     -10.081038      0.61137545    -7.2328676      0.023757528    1554.8947    
     14700   1.4867974     -10.039406      0.62207623    -7.1873823      0.61581425     1551.1748    
     14800   1.4857799     -10.037352      0.61667256    -7.192258      -0.067865821    1549.4079    
     14900   1.5070115     -10.038679      0.62093822    -7.1574751      0.53919956     1548.4493    
     15000   1.5079682     -9.9812251      0.61411744    -7.105407      -0.0011659933   1549.108     
     15100   1.5054716     -10.031947      0.62915983    -7.1448316      0.58937704     1552.3471    
     15200   1.5088789     -10.025923      0.61280503    -7.1500513     -0.12165676     1555.8235    
     15300   1.4872607     -10.041528      0.63687781    -7.1740075     -0.45539899     1556.0944    
     15400   1.5032325     -10.052875      0.61335872    -7.1849185      0.13583319     1554.236     
     15500   1.490598      -10.087367      0.61553409    -7.2361851      0.40231896     1552.4452    
     15600   1.4822648     -10.0303        0.65002242    -7.1571278      0.12254673     1550.9475    
     15700   1.5124171     -10.074539      0.61022303    -7.1959433      0.78528037     1551.1412    
     15800   1.50163       -10.071638      0.60617391    -7.2132695     -0.27823985     1552.6123    
     15900   1.4808991     -10.083769      0.60994729    -7.2527202      0.025919706    1552.1724    
     16000   1.4874465     -10.131046      0.62458347    -7.275541      -0.047726595    1551.1479    
     16100   1.4906696     -10.008635      0.60871941    -7.1641596      0.34019364     1551.1265    
     16200   1.4919081     -10.07671       0.63543532    -7.2036613      0.33881788     1552.6904    
     16300   1.4985254     -9.9830625      0.6101103     -7.1254143      0.029537226    1554.8649    
     16400   1.4952659     -10.065936      0.60280423    -7.220482      -0.021105861    1556.9452    
     16500   1.4936732     -10.028079      0.60725872    -7.1805599     -0.56432882     1557.4745    
     16600   1.4987235     -10.03659       0.61389548    -7.1748592     -0.053182111    1555.0358    
     16700   1.5053715     -9.9650086      0.62151366    -7.0856891      0.26617799     1552.9708    
     16800   1.4897439     -10.083439      0.61836365    -7.230708      -0.48951616     1551.1164    
     16900   1.4885693     -10.05224       0.63080238    -7.1888326      0.031336568    1549.274     
     17000   1.5016571     -10.00484       0.63046003    -7.1221449      1.1999466      1548.61      
     17100   1.5101634     -10.070207      0.59831545    -7.206899       0.49798121     1550.0118    
     17200   1.5024142     -10.059487      0.611277      -7.1948391      0.60799637     1552.0268    
     17300   1.4767795     -10.106299      0.64215973    -7.2492168      0.22482543     1554.2425    
     17400   1.4938517     -10.072004      0.62832477    -7.2031509     -0.56920451     1555.737     
     17500   1.4851881     -10.060388      0.61872038    -7.2141331      0.14460202     1555.0345    
     17600   1.4897287     -10.060308      0.61535557    -7.2106085     -0.30614333     1553.441     
     17700   1.4949222     -10.016553      0.61971327    -7.1547064      0.57652034     1551.4988    
     17800   1.500888      -10.046817      0.64146376    -7.1542715      0.41607122     1550.2841    
     17900   1.5047195     -10.048604      0.59602709    -7.1957487     -0.36099331     1550.4292    
     18000   1.4949858     -9.8801658      0.62084753    -7.0170892      0.895133       1549.4491    
     18100   1.4846698     -10.030732      0.61923489    -7.1847408     -0.36939152     1548.975     
     18200   1.4803073     -10.021163      0.61064851    -7.1903007      0.32412566     1548.1257    
     18300   1.5020685     -10.06731       0.60621796    -7.2082402      0.86880203     1549.5665    
     18400   1.4811867     -9.9968039      0.62970946    -7.1455616     -0.23238185     1553.1205    
     18500   1.4928711     -10.102354      0.62319737    -7.2400988     -0.27985053     1555.4008    
     18600   1.4890782     -10.114007      0.60589762    -7.2747407     -0.26639263     1556.3933    
     18700   1.5020832     -10.139093      0.62179191    -7.2644267      0.078266873    1555.0671    
     18800   1.4891479     -10.086398      0.62821682    -7.2247079      1.3538747      1552.7652    
     18900   1.4957382     -10.117226      0.63056478    -7.243304      -0.20959491     1551.3892    
     19000   1.5020133     -10.091718      0.61133518    -7.2276133      0.51224621     1551.9756    
     19100   1.4854358     -10.094731      0.59903045    -7.2677949      0.40068158     1552.9867    
     19200   1.487795      -10.07792       0.61525618    -7.2312194      0.23297381     1553.1896    
     19300   1.5035714     -10.02212       0.62393957    -7.1430745      0.58628387     1552.2089    
     19400   1.5002543     -9.9809251      0.64134214    -7.0894519     -0.32778518     1552.1503    
     19500   1.4762809     -9.9296044      0.63115998    -7.0842694      0.41511854     1552.2381    
     19600   1.4959002     -10.147325      0.63032371    -7.2734006     -0.072568478    1553.0511    
     19700   1.4817117     -10.055084      0.63768228    -7.1950819      0.18903597     1553.7668    
     19800   1.5006367     -10.08852       0.59743656    -7.2403791      0.14646174     1554.4619    
     19900   1.500569      -10.146544      0.62733436    -7.2686068      0.29032475     1555.0022    
     20000   1.4884621     -10.100733      0.61347254    -7.2548156      0.017817775    1556.1452    
     20100   1.4895847     -9.9307474      0.62734403    -7.069275       0.0035731856   1556.1463    
     20200   1.4905941     -10.021248      0.61782357    -7.1677826      0.068666212    1554.5982    
     20300   1.5045149     -10.072374      0.6214663     -7.1943863     -0.093941591    1551.6047    
     20400   1.4954933     -10.028915      0.60939343    -7.1765314      0.22698313     1547.6666    
     20500   1.4999004     -10.008322      0.6193963     -7.139326       0.99522205     1545.168     
     20600   1.49256       -10.008866      0.63650648    -7.1337684      1.4620064      1546.5153    
     20700   1.4917798     -10.095408      0.61976753    -7.2382197      0.22866779     1551.3543    
     20800   1.4871286     -10.159626      0.62931163    -7.29987       -0.96740503     1556.0098    
     20900   1.4769228     -10.045369      0.63534007    -7.1948916     -0.71282522     1556.7033    
     21000   1.4705715     -10.048166      0.6136975     -7.2288563      0.0076676358   1553.6009    
     21100   1.501678      -10.012386      0.59470568    -7.1654143      0.49382131     1548.8732    
     21200   1.5030116     -10.124406      0.62560242    -7.244537       0.81767222     1545.4662    
     21300   1.4945634     -10.085397      0.62064869    -7.2231524      0.54833431     1546.8877    
     21400   1.4774016     -10.145877      0.60703033    -7.3229907     -0.014607247    1550.5557    
     21500   1.5010691     -10.145396      0.60868248    -7.2853608      0.38119303     1553.1741    
     21600   1.4787712     -10.065068      0.60609069    -7.2410672     -0.71196432     1553.8309    
     21700   1.5083139     -10.168543      0.62121266    -7.2851109      0.087286616    1551.018     
     21800   1.5156758     -10.117438      0.6296014     -7.2145759      0.23501605     1547.7999    
     21900   1.5082868     -10.17837       0.62903055    -7.2871611      0.14665946     1547.0729    
     22000   1.4988098     -10.048765      0.6247589     -7.1760411      0.96458662     1548.5061    
     22100   1.488581      -10.054239      0.64626112    -7.1753545      0.28318689     1552.6597    
     22200   1.4926659     -10.01698       0.63016986    -7.1480609      0.20658904     1556.2834    
     22300   1.4920544     -10.027496      0.62543049    -7.164233      -0.53017249     1556.7416    
     22400   1.4851046     -10.165086      0.6099762     -7.3277004     -0.6371083      1554.2489    
     22500   1.4833818     -10.069871      0.62212479    -7.2229213      0.58451764     1549.9652    
     22600   1.5019172     -10.177944      0.61077702    -7.3145424      0.11736652     1547.069     
     22700   1.4944924     -10.096627      0.61263603    -7.2425015      0.11634349     1547.2947    
     22800   1.5021821     -10.141558      0.60487381    -7.2836616      0.76464725     1549.6483    
     22900   1.483749      -10.199922      0.61043959    -7.364107      -0.49639569     1552.1304    
     23000   1.4996467     -10.162531      0.60856543    -7.3047455     -0.63792221     1552.5463    
     23100   1.4714594     -10.073251      0.62148962    -7.2448177      0.78882555     1551.731     
     23200   1.5058073     -10.183559      0.6223097     -7.3027895     -0.48477534     1551.8812    
     23300   1.4869684     -10.085465      0.60697528    -7.2482849      0.4839627      1553.2139    
     23400   1.5034067     -10.141375      0.60842803    -7.2780883     -0.09136021     1554.3019    
     23500   1.4976007     -10.074639      0.62265734    -7.2058308      0.45514911     1553.3358    
     23600   1.4834017     -10.148736      0.62078073    -7.3031004      0.060260395    1552.3011    
     23700   1.4787448     -10.158928      0.62995589    -7.3111014     -0.8046057      1551.7092    
     23800   1.4991301     -10.227826      0.62678626    -7.3525946     -0.24690583     1549.8446    
     23900   1.5092437     -10.147157      0.61675685    -7.2667866      0.26886903     1549.748     
     24000   1.4950907     -10.133197      0.63860302    -7.2522071      0.10033254     1551.957     
     24100   1.4959908     -10.10464       0.6199838     -7.2409193     -0.54752083     1555.3445    
     24200   1.4883607     -10.154132      0.62405521    -7.297784      -0.9954164      1557.3833    
     24300   1.4843204     -10.05845       0.62668383    -7.2055337      0.1281768      1554.4723    
     24400   1.4927068     -10.023043      0.62498164    -7.15925        0.18056417     1550.6163    
     24500   1.4872311     -10.012497      0.61593614    -7.1659624      0.44768671     1547.7913    
     24600   1.5100494     -10.06912       0.61792044    -7.1863779      0.82670803     1546.8027    
     24700   1.4975648     -10.049276      0.63579359    -7.1673851      0.46808547     1548.5012    
     24800   1.4825099     -10.062529      0.64616418    -7.1928471     -0.3678792      1551.7757    
     24900   1.4928117     -10.094059      0.61298804    -7.2421029      0.39147753     1554.901     
     25000   1.520193      -10.059184      0.60742124    -7.1717266     -0.38289199     1557.3432    
     25100   1.4934907     -10.118211      0.62208494    -7.2561394     -0.70954662     1557.2159    
     25200   1.4973752     -10.13511       0.62200315    -7.2672938     -0.26068818     1553.4038    
     25300   1.5110097     -10.109994      0.6243845     -7.2193474      0.14292087     1549.2508    
     25400   1.5113606     -10.116699      0.62330762    -7.2266031      0.68683275     1547.7133    
     25500   1.4947964     -10.126211      0.61790709    -7.2663591     -0.042752775    1549.8625    
     25600   1.4802402     -10.035845      0.61389018    -7.201842      -0.54086163     1553.1081    
     25700   1.4883776     -10.079392      0.61474413    -7.2323298      0.31139282     1553.6632    
     25800   1.4889474     -10.09463       0.6102925     -7.2511653     -0.10872691     1552.8982    
     25900   1.4682021     -10.120957      0.62419045    -7.2947084      0.016111215    1551.395     
     26000   1.5048947     -10.144956      0.63844202    -7.249423       0.15538047     1549.3641    
     26100   1.4922334     -9.9381681      0.6232109     -7.0768563      0.42436289     1549.153     
     26200   1.4944148     -10.053316      0.6136679     -7.1982758     -0.18325987     1551.2308    
     26300   1.474287      -10.018983      0.63003671    -7.1777616     -0.12790383     1552.9703    
     26400   1.5060898     -10.122562      0.61561934    -7.248059       0.34607562     1552.6658    
     26500   1.484885      -10.018559      0.61146436    -7.1800148      0.32300056     1550.8663    
     26600   1.5171058     -10.049011      0.61599383    -7.1576114      0.49344679     1550.8335    
     26700   1.4999099     -10.184294      0.61784717    -7.3168325     -0.9367627      1552.5587    
     26800   1.4825131     -10.026986      0.62570824    -7.1777551     -0.37385593     1554.0758    
     26900   1.49368       -10.08172       0.61885516    -7.2225942     -0.58049235     1553.7685    
     27000   1.4813741     -10.059574      0.60880067    -7.2289592     -0.66959895     1550.5139    
     27100   1.4861827     -10.029624      0.60676776    -7.1938306      0.64829252     1546.2122    
     27200   1.4920359     -10.071035      0.61435377    -7.2188769     -0.34086218     1545.3239    
     27300   1.5088256     -10.038371      0.62207449    -7.1533099      0.30454476     1547.4131    
     27400   1.486787      -10.037657      0.61421439    -7.1935099      0.41726324     1550.4797    
     27500   1.484409      -10.062552      0.61607291    -7.2201132      0.13412896     1553.5311    
     27600   1.4845492     -10.094092      0.6023248     -7.2651916     -0.14301781     1555.6203    
     27700   1.4979026     -10.103058      0.59922067    -7.2572336     -0.40750425     1554.5963    
     27800   1.4897682     -10.151275      0.62502411    -7.2918467     -0.067661363    1550.3381    
     27900   1.4988486     -10.130664      0.62709597    -7.2555451     -0.3438911      1547.345     
     28000   1.496686      -10.127306      0.62732447    -7.2552022      0.7080827      1546.802     
     28100   1.4916052     -10.110682      0.59977884    -7.2737441      0.78138253     1548.25      
     28200   1.474813      -10.039153      0.61818918    -7.2089902      0.3275664      1549.4962    
     28300   1.5077549     -10.057352      0.63031104    -7.1656607      0.37020478     1551.301     
     28400   1.4908085     -10.045067      0.60324182    -7.2058611     -0.73610128     1553.2038    
     28500   1.4937871     -10.110492      0.59927087    -7.2707902     -0.47424097     1552.8723    
     28600   1.4948397     -10.11525       0.63083074    -7.2424089     -0.66135962     1550.3648    
     28700   1.4953452     -10.145344      0.63057185    -7.2720044      0.087229623    1548.5974    
     28800   1.4950083     -10.060037      0.61844441    -7.1993297      0.23989804     1549.1445    
     28900   1.4673126     -10.025457      0.61666662    -7.2080668      0.43529067     1549.8795    
     29000   1.4949901     -10.047955      0.60446198    -7.2012579      0.5599216      1549.2601    
     29100   1.5172085     -9.9220252      0.62784889    -7.0186169     -0.039400716    1548.3889    
     29200   1.500347      -10.008137      0.640139      -7.1177278      0.74928007     1549.4199    
     29300   1.4986056     -10.096581      0.60406141    -7.2448618     -0.28488793     1552.6751    
     29400   1.4813639     -9.994362       0.62450487    -7.1480585      0.25660927     1554.2753    
     29500   1.5019278     -10.012104      0.61493623    -7.1445268     -0.37776018     1553.9846    
     29600   1.4983125     -10.033244      0.61408671    -7.1719387      0.4222025      1552.5508    
     29700   1.4814111     -9.997421       0.62905486    -7.1464968     -0.45262479     1551.919     
     29800   1.4927771     -10.167328      0.60432538    -7.3240866      0.48301597     1551.2378    
     29900   1.4797728     -10.12926       0.61612941    -7.2937187      0.065488962    1550.8759    
     30000   1.4838358     -10.090849      0.61210356    -7.2532399      0.9675552      1549.3251    
     30100   1.4910143     -10.082413      0.60874137    -7.2373986      0.089103381    1547.9505    
     30200   1.4744466     -9.9755315      0.59961601    -7.1644917      0.59927405     1546.665     
     30300   1.4846872     -10.12517       0.61091411    -7.2874726      0.35152115     1547.9877    
     30400   1.4858821     -10.094295      0.61864564    -7.2470742     -0.27890658     1551.0466    
     30500   1.4736271     -10.13108       0.61313091    -7.3077544      0.69313199     1551.9787    
     30600   1.4916771     -10.103172      0.61870682    -7.2471983      0.17114715     1551.5605    
     30700   1.4877205     -10.084434      0.62983592    -7.2232658      0.054522173    1550.8583    
     30800   1.486905      -10.019594      0.61338923    -7.1760953      0.078941049    1550.6159    
     30900   1.4887006     -10.064759      0.60330433    -7.2286523      0.51381122     1550.9986    
     31000   1.4995002     -10.094553      0.60258319    -7.2429694     -0.45120059     1552.9753    
     31100   1.4942162     -9.9533531      0.61399211    -7.0982862      0.1020313      1553.9015    
     31200   1.4987204     -10.043897      0.62882942    -7.1672367     -0.13125648     1552.8411    
     31300   1.4923696     -9.9321037      0.58169769    -7.1121007      0.50646187     1551.5555    
     31400   1.4851371     -10.019317      0.61553047    -7.1763288     -0.46703554     1549.879     
     31500   1.4901676     -10.156009      0.62957637    -7.29143       -0.046350967    1547.6761    
     31600   1.4980139     -10.004225      0.59974135    -7.1577125      0.24104354     1547.0535    
     31700   1.4968989     -9.9984175      0.62519977    -7.1281193      0.47404497     1548.4261    
     31800   1.5037739     -10.016592      0.62154756    -7.1396345     -0.4997547      1550.8693    
     31900   1.4849887     -10.008723      0.62775404    -7.1537343     -0.47824166     1552.7201    
     32000   1.5026851     -9.9796295      0.59174825    -7.1341044      0.35000162     1553.3598    
     32100   1.4884108     -10.000957      0.60834707    -7.1602419     -0.5786714      1552.4082    
     32200   1.5026658     -9.9596796      0.60237871    -7.1035531      0.078445991    1550.8486    
     32300   1.4848283     -10.017254      0.6092772     -7.180982       0.17924375     1549.6814    
     32400   1.498233      -10.108437      0.61459429    -7.2467431     -0.042952193    1549.4694    
     32500   1.483293      -10.053122      0.61611251    -7.2123176      0.57160246     1549.6668    
     32600   1.514533      -10.046687      0.62084238    -7.1542978      0.69765439     1550.7738    
     32700   1.4946263     -10.050513      0.61285434    -7.1959688      0.62159445     1553.1008    
     32800   1.4944234     -10.103862      0.64109024    -7.2213858     -0.53490574     1554.7186    
     32900   1.4950686     -9.8950092      0.60244901    -7.0502069     -0.017228075    1553.9521    
     33000   1.5039392     -9.9881814      0.61522261    -7.1173011      0.30381957     1552.3393    
     33100   1.4878344     -9.9235398      0.63448009    -7.0575566     -0.4537144      1550.783     
     33200   1.4867915     -9.8303349      0.62236667    -6.9780293      0.6170703      1548.8694    
     33300   1.5014757     -9.9586757      0.62085175    -7.085861       0.066931424    1548.0819    
     33400   1.4879423     -9.972202       0.62760754    -7.1129294      0.91350397     1549.8744    
     33500   1.5126706     -10.015994      0.60239143    -7.1448489      0.5239784      1552.3079    
     33600   1.4926255     -10.03105       0.62616545    -7.1661955     -0.41443934     1553.8568    
     33700   1.4862483     -9.9990616      0.62589137    -7.144046       0.28118268     1552.8093    
     33800   1.4707247     -10.006634      0.62149336    -7.1792988      0.015617686    1551.8443    
     33900   1.4811718     -10.004063      0.62410976    -7.1584427      0.93179791     1551.3273    
     34000   1.4936229     -10.059924      0.60686497    -7.2128737     -0.22174128     1553.2526    
     34100   1.4987467     -10.060815      0.61351779    -7.1994272     -0.51202616     1555.1511    
     34200   1.4876209     -9.9620305      0.6126964     -7.1181511      0.64820509     1553.3524    
     34300   1.5020609     -10.018165      0.59742578    -7.1678991      0.63571399     1550.6923    
     34400   1.5123408     -9.9725455      0.60258814    -7.1016987     -0.053206584    1548.6941    
     34500   1.4901873     -10.049651      0.61432083    -7.2002984      0.84445057     1547.8778    
     34600   1.5038068     -10.167403      0.6042204     -7.3077233      0.52130512     1549.0849    
     34700   1.4803198     -10.195509      0.61824656    -7.3570293     -0.5741713      1551.4416    
     34800   1.4891769     -10.113551      0.62019953    -7.2598349      0.12132637     1552.4607    
     34900   1.4837218     -10.13044       0.61228233    -7.2928229      0.20473959     1553.6545    
     35000   1.507457      -9.9680783      0.6291198     -7.0780247     -0.039929038    1554.2174    
     35100   1.5041017     -10.088993      0.61442353    -7.2186684     -0.21665094     1553.0888    
     35200   1.5040613     -10.045347      0.63151268    -7.1579932     -0.0016294629   1551.4338    
     35300   1.4903666     -10.025612      0.61897051    -7.1713401      0.53569721     1550.5541    
     35400   1.5061408     -10.02022       0.6264605     -7.1348        -0.83657574     1550.5319    
     35500   1.5043866     -10.052973      0.62180308    -7.1748416     -0.61647294     1549.9372    
     35600   1.4894898     -10.031119      0.61628602    -7.1808473      0.48351066     1550.1261    
     35700   1.4870135     -10.101918      0.62352266    -7.2481233      0.22433213     1550.8083    
     35800   1.4915481     -10.07192       0.60965224    -7.2251945      0.14255364     1551.5838    
     35900   1.4794428     -10.010772      0.61881208    -7.1730425      0.13954395     1552.6656    
     36000   1.4962715     -10.105669      0.61348481    -7.2480266      0.016370552    1552.201     
     36100   1.4980586     -9.9763291      0.61625365    -7.1132376      0.33944259     1550.2725    
     36200   1.495888      -9.9662534      0.60837257    -7.1142985      0.24631628     1549.6861    
     36300   1.501543      -9.9843663      0.61999409    -7.1123085      0.10587177     1551.2778    
     36400   1.4678132     -10.058365      0.61698747    -7.2399023      0.034706021    1553.8916    
     36500   1.483426      -10.009915      0.62700835    -7.1580152     -0.66471894     1554.6277    
     36600   1.4997375     -9.9670073      0.61341108    -7.1042403      0.16973664     1553.6866    
     36700   1.4790916     -10.031026      0.62862032    -7.1840157     -0.24679111     1552.9447    
     36800   1.4788826     -9.9694732      0.6206306     -7.1307655      0.28055035     1552.1584    
     36900   1.5028141     -10.035245      0.61671754    -7.1645569      0.029820581    1552.2771    
     37000   1.5041417     -9.9239031      0.61046927    -7.0574724      0.84210413     1551.2083    
     37100   1.5029999     -9.9143361      0.60938895    -7.0506983      0.24977816     1551.0256    
     37200   1.4743527     -9.9912899      0.61643459    -7.1635723      0.20896245     1550.411     
     37300   1.4904223     -10.024323      0.62837904    -7.1605597      0.10314828     1549.9938    
     37400   1.4989691     -10.059885      0.60061997    -7.2110618      0.075938446    1550.4725    
     37500   1.4912648     -10.054011      0.61422304    -7.2031393     -0.25379083     1550.9428    
     37600   1.5024295     -10.032448      0.62227938    -7.1567753     -0.063328728    1550.4626    
     37700   1.4882679     -10.018942      0.62331075    -7.1634778      0.64487959     1549.7776    
     37800   1.4914174     -10.040789      0.62348599    -7.1804257     -0.52851317     1550.9126    
     37900   1.5029561     -10.09071       0.61918214    -7.2173446     -0.28925631     1551.6849    
     38000   1.4826442     -10.03502       0.62574941    -7.1855518      0.12081445     1553.21      
     38100   1.5060758     -9.9761366      0.61423271    -7.1030416     -0.00059684708  1555.2724    
     38200   1.4929547     -10.003018      0.61701275    -7.1468225     -0.54120833     1555.5816    
     38300   1.4891444     -10.038016      0.6028069     -7.2017415      0.060222825    1554.117     
     38400   1.4906814     -9.9579362      0.61030408    -7.1118589     -0.15439697     1552.2493    
     38500   1.5123601     -9.9722832      0.60353092    -7.1004645      0.54418528     1549.4433    
     38600   1.4897194     -10.048516      0.6291172     -7.1850689      0.24307737     1547.5757    
     38700   1.4929783     -10.117426      0.61421118    -7.2639968      0.41265711     1548.0216    
     38800   1.4909867     -10.100549      0.63745952    -7.2268583     -0.006636937    1549.9628    
     38900   1.4960969     -10.015508      0.60132937    -7.1702831      0.57378747     1551.9115    
     39000   1.4754997     -9.9796358      0.60193695    -7.1646957     -0.2556191      1553.7398    
     39100   1.4920689     -9.9423298      0.61275483    -7.0917206     -0.1573567      1552.3151    
     39200   1.5034502     -9.9826632      0.6002644     -7.1274744      0.16278236     1549.8392    
     39300   1.4893577     -10.018144      0.6091384     -7.1752176     -0.72076611     1548.0145    
     39400   1.4737013     -10.000963      0.61774124    -7.1729161      0.047483236    1548.2598    
     39500   1.4989526     -10.026131      0.62406945    -7.1538825     -0.3081121      1549.6286    
     39600   1.4648066     -9.9797333      0.61332654    -7.1694414      0.22558897     1552.8361    
     39700   1.4829825     -10.130443      0.60900701    -7.2972098     -0.50938697     1555.2266    
     39800   1.4703544     -10.041212      0.61469874    -7.2212268     -0.57018253     1554.3052    
     39900   1.4918459     -10.0627        0.58522354    -7.2399568     -0.53594366     1551.3938    
     40000   1.497032      -10.116251      0.62803393    -7.2429186      0.58727506     1548.4223    
     40100   1.5013625     -9.9999139      0.61789666    -7.1302242      0.25879056     1547.9767    
     40200   1.4956716     -9.9426469      0.61124706    -7.0881421      0.62719963     1550.3551    
     40300   1.4785627     -10.0044        0.61353157    -7.1732708     -0.20567626     1553.5036    
     40400   1.4784945     -10.03249       0.61524366    -7.1997517     -0.11651269     1554.7842    
     40500   1.4840097     -10.071155      0.60741474    -7.2379731     -0.45240448     1554.942     
     40600   1.4970108     -10.0479        0.60655517    -7.1960786      0.14117846     1553.895     
     40700   1.4939619     -10.026461      0.6263621     -7.1594056     -0.18040312     1552.7874    
     40800   1.5074589     -9.9959976      0.6299784     -7.1050825      0.78453178     1552.6196    
     40900   1.4862377     -10.088021      0.62980705    -7.2291052      0.077175377    1554.0234    
     41000   1.4983657     -10.069027      0.61416928    -7.2075596     -0.77302887     1554.6447    
     41100   1.4816509     -10.047597      0.58764822    -7.2377197      0.03087544     1553.7285    
     41200   1.4899436     -9.9775082      0.61430568    -7.1285359      0.21683612     1551.7082    
     41300   1.5025753     -10.020346      0.59664017    -7.170094       0.37797073     1550.0481    
     41400   1.4971115     -9.9477359      0.61605991    -7.0862587      0.48995336     1549.86      
     41500   1.4769052     -10.040086      0.63098231    -7.1939927      0.061645471    1550.5792    
     41600   1.4874354     -10.015414      0.60359009    -7.1809192      0.50071922     1551.3664    
     41700   1.4885566     -9.9853558      0.64209187    -7.1106775      0.41456646     1553.5265    
     41800   1.4900992     -10.041694      0.62007344    -7.1867203     -0.17159376     1555.4263    
     41900   1.4968012     -9.9667689      0.6093035     -7.1125135      0.51803875     1555.5794    
     42000   1.488695      -10.054409      0.61794602    -7.2036685     -0.80992338     1554.3127    
     42100   1.5018877     -9.8904553      0.61473342    -7.0231411     -0.10446432     1552.1758    
     42200   1.477867      -9.9800342      0.62599869    -7.1374817      0.53786022     1549.7443    
     42300   1.4933294     -9.9227945      0.6216622     -7.0613874      0.58835806     1548.5145    
     42400   1.4872046     -10.019022      0.63704356    -7.1514203     -0.47816093     1549.8052    
     42500   1.5002945     -10.090505      0.62124652    -7.2190667      0.32484439     1550.6905    
     42600   1.4846117     -10.092753      0.61476652    -7.2513171      0.2028132      1550.5723    
     42700   1.4903115     -10.094097      0.62004774    -7.2388303      0.74783248     1549.8383    
     42800   1.4956642     -10.04448       0.60270816    -7.1985253      1.1614832      1550.3979    
     42900   1.4942751     -10.157021      0.62281445    -7.2930437     -0.43335195     1552.0739    
     43000   1.4830206     -9.9295858      0.61473791    -7.0905646      0.20022153     1552.1415    
     43100   1.5062919     -10.117195      0.60413715    -7.2538718     -0.0021946527   1551.348     
     43200   1.4870606     -10.03296       0.61731824    -7.1852993     -0.3061199      1550.7444    
     43300   1.4710739     -10.017655      0.61966971    -7.19162        0.59010774     1549.8579    
     43400   1.4955437     -10.051478      0.61543       -7.1929826     -0.21981676     1550.5178    
     43500   1.5055542     -10.000522      0.60337623    -7.139066      -0.4818985      1551.1212    
     43600   1.492255      -9.9920957      0.60364087    -7.1503215     -0.022505132    1551.3491    
     43700   1.4857231     -10.0574        0.63761601    -7.1914472     -0.1450889      1551.5117    
     43800   1.4832704     -10.090628      0.62903247    -7.2369371     -0.24076077     1551.7855    
     43900   1.5087818     -10.048829      0.6225852     -7.1633231     -0.28754759     1551.0104    
     44000   1.4925181     -10.020772      0.6202192     -7.1620244     -0.16981588     1550.3238    
     44100   1.4980566     -9.9081899      0.61873205    -7.042623      -0.2902243      1549.9533    
     44200   1.5057017     -9.9999409      0.61994293    -7.1216969     -0.2257899      1549.8998    
     44300   1.4963399     -10.035337      0.6155836     -7.1754934     -0.21001484     1551.2439    
     44400   1.4923921     -10.110723      0.63446564    -7.2379187     -0.9903791      1553.0209    
     44500   1.4688384     -10.113691      0.61606579    -7.2946125      0.6443847      1551.7583    
     44600   1.5088298     -10.173543      0.62054291    -7.2900075     -0.0041804877   1549.7579    
     44700   1.4905941     -10.046582      0.62776647    -7.1831732      0.2669059      1548.4767    
     44800   1.4796984     -9.9956632      0.60166606    -7.1746965      0.0092093886   1549.315     
     44900   1.4876993     -10.027801      0.60625415    -7.1902459     -0.080325872    1550.5818    
     45000   1.4991053     -10.0888        0.62036425    -7.2200282     -0.095724236    1552.5426    
     45100   1.502368      -9.9678358      0.6083249     -7.1062098      0.089463787    1556.1627    
     45200   1.4874481     -9.9956629      0.59177553    -7.1729635     -0.29682289     1558.3867    
     45300   1.4747148     -9.992933       0.60254507    -7.178562      -0.36930325     1557.2561    
     45400   1.5054386     -10.034649      0.60999014    -7.1667519      0.4520923      1553.9203    
     45500   1.504197      -10.088829      0.62156295    -7.2112215     -0.05503751     1550.87      
     45600   1.4943547     -10.10621       0.61578745    -7.2491397     -0.042896847    1549.5486    
     45700   1.4933865     -10.106434      0.62947914    -7.2371242     -0.45234159     1549.5248    
     45800   1.4942887     -10.101685      0.61845638    -7.2420449      0.21167224     1550.9281    
     45900   1.4753978     -10.110639      0.61519453    -7.2825945      0.19454283     1552.6569    
     46000   1.4786277     -10.11119       0.60963329    -7.2838617     -0.03227187     1552.9083    
     46100   1.4732494     -10.007341      0.62432966    -7.1733829      0.28495511     1551.4097    
     46200   1.5033775     -10.029655      0.60964053    -7.1651991      0.31791201     1550.4281    
     46300   1.4870842     -10.06434       0.59892278    -7.2350396      0.52225208     1550.7344    
     46400   1.4912789     -10.10796       0.63347287    -7.2378173     -0.21359437     1551.9766    
     46500   1.5081627     -10.061919      0.60870864    -7.1912184      0.80583542     1552.2399    
     46600   1.5004024     -10.078709      0.60303449    -7.2253209      0.20491513     1552.1982    
     46700   1.5066042     -10.062725      0.62534672    -7.1777234      0.2820849      1550.9527    
     46800   1.4860795     -10.112624      0.61954625    -7.264207       0.39396331     1550.5356    
     46900   1.4888579     -9.9633203      0.61821676    -7.1120653      0.33096427     1552.169     
     47000   1.4863316     -10.047089      0.59702167    -7.2208178      0.63348766     1554.0366    
     47100   1.4770295     -9.9948396      0.61491176    -7.1646301     -0.19035988     1554.522     
     47200   1.4876792     -10.092715      0.60349104    -7.2579538      0.1565439      1553.219     
     47300   1.5090704     -9.9830204      0.61389666    -7.10577        0.37219661     1550.7596    
     47400   1.5049841     -10.018325      0.61278057    -7.1483197      0.54234238     1549.6594    
     47500   1.5069523     -10.012294      0.62428608    -7.1278312      0.48743889     1550.0938    
     47600   1.5088474     -9.9981126      0.61416011    -7.1209332      0.3484305      1552.2974    
     47700   1.4800948     -10.07581       0.62557113    -7.230344      -0.71597017     1555.7313    
     47800   1.4985505     -10.073337      0.61663965    -7.209122      -0.059567387    1557.0547    
     47900   1.5045703     -10.170838      0.61729476    -7.2969392     -0.96644082     1556.8942    
     48000   1.4951199     -10.041658      0.61941575    -7.179812      -0.71536647     1553.3981    
     48100   1.496688      -9.9309548      0.61760399    -7.0685687      0.45129169     1550.2225    
     48200   1.4864423     -10.034489      0.61682036    -7.1882537     -0.05419449     1549.9652    
     48300   1.4777319     -9.9668802      0.61920099    -7.1313281      0.93405381     1551.1342    
     48400   1.4840776     -10.025422      0.6173758     -7.1821771      0.30820261     1553.219     
     48500   1.4730585     -9.9891693      0.59594783    -7.1838796     -0.090625719    1554.5441    
     48600   1.4859875     -9.9533583      0.62144829    -7.1031768     -0.0819585      1552.8355    
     48700   1.4913887     -10.068357      0.6278539     -7.2036693     -0.015523641    1549.104     
     48800   1.4825495     -10.002577      0.60960248    -7.1693981      0.83185536     1546.6708    
     48900   1.4796223     -9.9673951      0.61513799    -7.1330707      0.95675489     1547.8928    
     49000   1.496938      -10.046757      0.61856954    -7.18303        0.17035544     1551.2975    
     49100   1.4936682     -9.9923218      0.62440518    -7.1276637     -0.63535792     1554.9311    
     49200   1.4888145     -9.8928248      0.60304296    -7.0568086      0.41571273     1555.2103    
     49300   1.4914833     -9.9346664      0.62878474    -7.0689057      0.043894649    1552.9806    
     49400   1.485694      -9.9484803      0.61178712    -7.1084003      0.3393135      1550.1732    
     49500   1.4890748     -9.9790162      0.62861971    -7.1170329      0.24306521     1547.2946    
     49600   1.4826913     -10.121456      0.60779724    -7.2898694      0.53117807     1546.2825    
     49700   1.4874732     -10.062538      0.61809313    -7.2134837      0.72817283     1547.5225    
     49800   1.4777823     -10.083348      0.61767437    -7.2492468      0.316797       1550.1803    
     49900   1.4871446     -10.075695      0.62071685    -7.2245097     -0.38602586     1551.6688    
     50000   1.5085308     -10.098602      0.59961467    -7.2364426      0.10965347     1552.1466    
     50100   1.479277      -9.8644393      0.62485013    -7.0209206     -0.44674673     1552.1641    
     50200   1.4758381     -9.9602315      0.62921503    -7.1175057     -0.014399412    1550.2738    
     50300   1.4722049     -9.9458146      0.63572072    -7.1020322      0.7326646      1547.0954    
     50400   1.4920552     -10.025743      0.63077667    -7.1571326      0.56569711     1545.8526    
     50500   1.4970921     -10.016806      0.61758444    -7.1538331      0.61713153     1547.9198    
     50600   1.4702445     -10.044736      0.62475057    -7.2148645     -0.35622852     1551.356     
     50700   1.5008035     -10.028306      0.62630069    -7.1510504     -0.075437391    1554.0597    
     50800   1.5024389     -10.003803      0.6262982     -7.1240971      0.31592563     1555.6772    
     50900   1.4908445     -9.931463       0.62424223    -7.0712028      0.21774633     1555.4066    
     51000   1.4895161     -9.9009577      0.60986574    -7.0570665      0.94869648     1553.3412    
     51100   1.5019535     -9.9233026      0.6183239     -7.0522992     -0.38712205     1551.689     
     51200   1.4850613     -9.9366086      0.62580409    -7.0834604      0.24779348     1550.5738    
     51300   1.5024028     -9.9399277      0.6371959     -7.0493785      0.3275043      1550.4604    
     51400   1.499839      -9.9554081      0.60262571    -7.1032742      0.41751979     1551.0277    
     51500   1.4879234     -9.9824888      0.61267851    -7.1381737      0.053774393    1551.4746    
     51600   1.4875605     -9.9385206      0.62079361    -7.0866345      0.50277485     1551.3529    
     51700   1.4937522     -9.968533       0.61597403    -7.1121801     -0.17476357     1553.2628    
     51800   1.4858335     -10.031007      0.63653153    -7.1659733     -0.51875239     1555.2904    
     51900   1.4898946     -9.9480328      0.61676591    -7.0966736     -0.39484849     1555.6804    
     52000   1.496354      -10.081903      0.61941425    -7.2182079     -0.77815592     1554.5762    
     52100   1.4859084     -9.922522       0.60031746    -7.09359        0.8530854      1551.4879    
     52200   1.4901788     -10.006746      0.62723469    -7.1444918     -0.025599825    1549.6298    
     52300   1.487458      -9.9948743      0.61821563    -7.1457199      0.11511067     1548.1479    
     52400   1.4948598     -10.002437      0.62093629    -7.1394608      0.33451451     1547.8016    
     52500   1.4895938     -9.8902875      0.61819722    -7.0379483      0.48333111     1550.0564    
     52600   1.501869      -10.049029      0.63245615    -7.1640201     -1.0484843      1554.104     
     52700   1.5008953     -10.010428      0.62407398    -7.1352615     -0.78944538     1555.7478    
     52800   1.5037478     -10.034175      0.60504733    -7.173757      -0.38408047     1554.4983    
     52900   1.498976      -10.077385      0.6222293     -7.2069425     -0.51632297     1552.0522    
     53000   1.4848072     -10.036021      0.61380367    -7.195254       0.24946788     1549.8509    
     53100   1.4915898     -9.9974285      0.61441559    -7.1458773     -0.021032854    1548.7535    
     53200   1.5008192     -9.9280043      0.60525785    -7.0717681      0.37770659     1548.8008    
     53300   1.4912843     -10.018895      0.62402895    -7.1581888      0.42799226     1549.8284    
     53400   1.4858369     -9.9401927      0.59555597    -7.1161294      0.24601628     1552.2204    
     53500   1.4876104     -10.004413      0.59885886    -7.1743869     -0.87200437     1553.8131    
     53600   1.4784383     -9.9704605      0.61147636    -7.1415735     -0.54045608     1553.3583    
     53700   1.5081931     -9.9826462      0.61420057    -7.1064078      0.0004104412   1552.0828    
     53800   1.4856215     -10.005397      0.61111211    -7.1661005      0.10376429     1551.1018    
     53900   1.4949464     -10.086347      0.59790789    -7.2462691     -0.62289165     1551.5627    
     54000   1.4908047     -10.042266      0.6210423     -7.1852658     -0.8305963      1551.7428    
     54100   1.5020784     -9.9324661      0.61682222    -7.0627771      0.72511206     1551.2722    
     54200   1.5144731     -9.977509       0.61117217    -7.0948801      0.395041       1552.3115    
     54300   1.4967289     -9.919533       0.62413205    -7.0505574      0.033109442    1553.3565    
     54400   1.4908071     -9.921473       0.61802822    -7.0674829     -0.0735827      1553.7079    
     54500   1.4991717     -9.9985596      0.62220316    -7.1278491      0.047525844    1552.3331    
     54600   1.4837339     -9.8919669      0.62778639    -7.0388274      0.80356652     1550.2568    
     54700   1.5086417     -9.9431256      0.61610394    -7.064311       0.26018748     1549.8808    
     54800   1.5115271     -10.053276      0.62285959    -7.1633784     -0.016744078    1549.9687    
     54900   1.4917754     -10.014994      0.62232836    -7.1552519     -0.22364905     1550.4488    
     55000   1.5017727     -10.094499      0.61312729    -7.2289634      0.1934067      1551.1497    
     55100   1.491937      -10.003137      0.62505021    -7.14043       -0.6972211      1551.6947    
     55200   1.4776653     -9.9575473      0.63710724    -7.1041888     -0.073104375    1551.1553    
     55300   1.4956193     -9.9257679      0.62059417    -7.0619944     -0.019675536    1549.5129    
     55400   1.4825367     -10.045753      0.60877347    -7.2134218      0.25717739     1548.8777    
     55500   1.4780801     -9.9788207      0.62345325    -7.138494       0.62785302     1549.7099    
     55600   1.5075055     -10.130123      0.62764707    -7.2414689      0.13037432     1551.9905    
     55700   1.4927476     -9.9606405      0.61680335    -7.104965       0.076616915    1554.2736    
     55800   1.4738924     -9.9319349      0.60999891    -7.1113434     -0.40846326     1554.6008    
     55900   1.4739326     -10.047005      0.62838779    -7.2079643     -0.13587188     1553.3679    
     56000   1.4902581     -9.9806359      0.61356984    -7.1319278      0.034711483    1551.6691    
     56100   1.4961002     -10.032239      0.61334145    -7.1749966      0.28190514     1551.0247    
     56200   1.4932024     -10.005844      0.62283848    -7.1434512     -0.11626939     1551.352     
     56300   1.5014818     -10.072888      0.63003364    -7.1908823      0.15777287     1552.5357    
     56400   1.4887655     -10.003621      0.62889254    -7.1418285     -0.14266166     1553.5244    
     56500   1.4988387     -10.095906      0.61916829    -7.2287297     -0.45282804     1554.2433    
     56600   1.4747081     -10.059887      0.62403806    -7.2240325      0.45448334     1552.5201    
     56700   1.5122991     -10.121172      0.61772479    -7.2352514      0.05367115     1549.8523    
     56800   1.4954994     -10.106585      0.61593404    -7.2476516      0.2781819      1548.2303    
     56900   1.5054893     -10.086988      0.61396014    -7.2150453      0.13841298     1549.4757    
     57000   1.4890141     -10.043145      0.61723992    -7.1926327     -0.14351241     1551.0236    
     57100   1.4834871     -9.9957139      0.6294998     -7.1412312     -0.097716415    1552.0633    
     57200   1.4951315     -9.9400769      0.62324511    -7.0743842      0.12956141     1552.5215    
     57300   1.4998747     -10.045573      0.61268746    -7.1833239      0.16705983     1552.9219    
     57400   1.4828769     -10.027354      0.62577705    -7.1775088     -0.51967459     1553.021     
     57500   1.5022974     -10.038147      0.61966496    -7.1652871      0.2169804      1551.3834    
     57600   1.5108279     -10.102621      0.62581732    -7.2108137      0.21333656     1549.898     
     57700   1.487041      -10.137913      0.62353627    -7.2840639     -0.36779264     1550.1594    
     57800   1.4924306     -10.131959      0.60806089    -7.2855014      0.3138626      1551.0097    
     57900   1.4732908     -10.132537      0.63203371    -7.2908134     -0.48231033     1551.8991    
     58000   1.5042108     -10.14513       0.62582873    -7.2632361      1.1347551      1552.9364    
     58100   1.5134387     -10.036041      0.61510755    -7.1510277     -0.76062915     1554.8799    
     58200   1.4975255     -10.071541      0.60736902    -7.2181334      0.7943735      1554.1252    
     58300   1.4913933     -10.046521      0.62363226    -7.186048       0.24416319     1554.2891    
     58400   1.4885716     -10.054004      0.60546629    -7.2159292     -0.19481831     1553.2573    
     58500   1.4764415     -10.076755      0.62558364    -7.2367552     -0.18218802     1551.0576    
     58600   1.4799861     -10.039521      0.63197794    -7.187811       0.24252741     1548.497     
     58700   1.4823469     -10.253674      0.60200728    -7.4283934      0.24212443     1546.0094    
     58800   1.5006243     -10.169333      0.60036956    -7.3182774      0.76852478     1545.0699    
     58900   1.4960145     -10.148187      0.59919557    -7.3052192      0.45366393     1547.2813    
     59000   1.4842452     -10.05518       0.62020622    -7.2088542      0.23303796     1550.3407    
     59100   1.4902125     -10.001491      0.62254064    -7.1438803      0.20097554     1553.3428    
     59200   1.4968278     -10.095071      0.6172188     -7.23286       -0.099479226    1553.806     
     59300   1.4979917     -10.140812      0.61877174    -7.2753027      0.49087613     1552.3993    
     59400   1.4994766     -10.083137      0.63117446    -7.2029981      0.049321263    1552         
     59500   1.4880923     -10.097893      0.62323848    -7.2427643     -0.78954864     1552.2215    
     59600   1.4943789     -10.192881      0.61544049    -7.3361217     -0.047010099    1552.5036    
     59700   1.5090966     -10.191257      0.60303978    -7.3248246      0.20164882     1552.4341    
     59800   1.4943427     -10.097992      0.6140877     -7.2426394     -0.40293025     1553.3862    
     59900   1.501909      -10.158013      0.62125798    -7.2841419      0.45975878     1553.7871    
     60000   1.4965108     -10.050239      0.58845461    -7.217268      -0.092755041    1552.9167    
     60100   1.4934115     -10.016385      0.60544969    -7.1710669      0.30531072     1550.9762    
     60200   1.4720077     -10.108054      0.60934788    -7.2909399      0.5977347      1550.0833    
     60300   1.5059767     -10.029339      0.60139075    -7.1692346      0.83371798     1550.2417    
     60400   1.506174      -10.118195      0.59956634    -7.2596192      0.083526397    1550.7758    
     60500   1.4685943     -10.010052      0.60685732    -7.2005485      0.51304993     1549.538     
     60600   1.4878493     -10.089136      0.61046605    -7.2471444      0.63355406     1548.9922    
     60700   1.4757419     -10.237164      0.62517573    -7.3986222     -0.31954582     1550.4061    
     60800   1.4818768     -10.123107      0.6066252     -7.2939143     -0.062135269    1552.133     
     60900   1.4762736     -10.13974       0.63287422    -7.2927017     -0.82721246     1553.4577    
     61000   1.4855731     -10.16018       0.62212297    -7.3099456      0.42495366     1552.2328    
     61100   1.4799105     -9.9692129      0.62304002    -7.1265542      0.30219522     1550.7701    
     61200   1.5005038     -10.048174      0.6258258     -7.171843       0.20511511     1549.6639    
     61300   1.4972115     -10.0587        0.62347639    -7.1896565     -0.39995041     1549.2119    
     61400   1.4953311     -10.08626       0.62093576    -7.222577       0.33910754     1550.3291    
     61500   1.5010445     -10.060087      0.61542019    -7.193351       0.51334667     1551.7857    
     61600   1.4799888     -10.034269      0.60628393    -7.2082494     -0.079406927    1553.338     
     61700   1.5069903     -10.06841       0.60599582    -7.2021804     -0.46168069     1552.9603    
     61800   1.5015933     -10.110472      0.63137363    -7.2269589     -0.69953547     1551.4636    
     61900   1.499031      -10.066486      0.60970837    -7.208481       0.70283188     1550.2661    
     62000   1.5017084     -10.173086      0.60906362    -7.31171        0.54968764     1550.4455    
     62100   1.4832652     -9.980309       0.61705877    -7.1386         0.21654237     1550.638     
     62200   1.4850785     -10.088927      0.61879767    -7.2427597     -0.022053839    1551.095     
     62300   1.5065046     -10.105743      0.61771732    -7.2285204     -0.59868004     1553.5809    
     62400   1.5014916     -10.05416       0.60281222    -7.1993612     -0.46771798     1555.3582    
     62500   1.4996302     -10.028772      0.61136826    -7.1682084     -0.18337896     1555.0869    
     62600   1.4807966     -10.035035      0.62502954    -7.1890582     -0.90583101     1553.4378    
     62700   1.4888491     -9.9947873      0.6036889     -7.1580733      0.77568543     1550.9       
     62800   1.5087582     -10.069732      0.60668909    -7.2001575      0.85594514     1550.1453    
     62900   1.4935746     -10.062318      0.62543279    -7.1967726      0.76614245     1552.3751    
     63000   1.4827513     -10.093195      0.62112021    -7.2481951     -0.64639976     1555.0169    
     63100   1.4779143     -9.9843891      0.62784208    -7.1399223      0.29367289     1554.5745    
     63200   1.5062113     -10.056428      0.59554145    -7.2018208     -0.32579889     1552.5962    
     63300   1.4952961     -10.016846      0.61782243    -7.1563291     -0.33761677     1551.0422    
     63400   1.4993359     -10.089523      0.6331891     -7.2075799      0.3885637      1551.79      
     63500   1.5118451     -10.094615      0.59273357    -7.2343663     -0.62496281     1552.8785    
     63600   1.4724647     -10.092689      0.62903749    -7.2552007     -0.37061651     1552.8031    
     63700   1.5034475     -9.984875       0.63337938    -7.0965754     -0.20765916     1553.2254    
     63800   1.4934606     -10.059624      0.6261704     -7.1935117     -0.40772173     1552.7846    
     63900   1.5027945     -10.13266       0.62316272    -7.2555566     -0.36200213     1551.2599    
     64000   1.5018041     -10.058894      0.61026483    -7.1961738      0.092897731    1550.5479    
     64100   1.488255      -10.11272       0.62835775    -7.2522284     -0.7891927      1552.0118    
     64200   1.4954472     -10.040947      0.61223364    -7.1857921      0.92767676     1552.8583    
     64300   1.4758673     -10.01483       0.62910825    -7.172167       0.31800713     1552.5464    
     64400   1.4923894     -10.066368      0.61055793    -7.2174754      0.37103231     1551.701     
     64500   1.4907963     -10.062184      0.61642739    -7.2098107     -0.18963182     1550.7217    
     64600   1.4880995     -9.9871122      0.62137568    -7.1338356      0.00038549754  1550.726     
     64700   1.4825624     -10.024131      0.6295797     -7.1709551      0.04380125     1551.2746    
     64800   1.4800028     -10.084884      0.62722406    -7.2379033      0.063696491    1552.2734    
     64900   1.4897993     -10.134227      0.61661476    -7.2831621      0.26571972     1552.906     
     65000   1.4921652     -10.044218      0.60524136    -7.2009776     -0.13616031     1552.6142    
     65100   1.4909075     -9.9764195      0.60027046    -7.1400367      0.15456495     1550.8987    
     65200   1.4907058     -9.9961174      0.62134226    -7.1389654      0.73045123     1548.6275    
     65300   1.4968675     -9.9780272      0.62037677    -7.112599       0.75562817     1548.2956    
     65400   1.4919501     -10.001483      0.62180683    -7.1419998      0.28581255     1549.9726    
     65500   1.4973145     -10.103654      0.61015884    -7.2477733     -0.78366119     1551.544     
     65600   1.4978135     -10.060565      0.60640492    -7.2076897      0.19996348     1551.8875    
     65700   1.5077537     -10.120231      0.63058943    -7.2282625     -0.389461       1553.1486    
     65800   1.4825307     -10.085456      0.62585672    -7.2360506     -0.36843814     1553.606     
     65900   1.5046891     -10.115732      0.63654849    -7.2224015      0.27040676     1552.646     
     66000   1.5016645     -10.118715      0.61482048    -7.2516483     -0.53014956     1552.7198    
     66100   1.482038      -10.052067      0.62976966    -7.1994877      0.079647759    1551.7396    
     66200   1.4861113     -9.9651268      0.6280667     -7.1081412      0.3872551      1551.4061    
     66300   1.4765772     -10.035064      0.61440683    -7.2060378     -0.3960887      1551.3738    
     66400   1.4997454     -10.017698      0.60871299    -7.1596176      0.34538871     1550.9293    
     66500   1.5012914     -10.061399      0.62583153    -7.1838813     -0.53051932     1551.6056    
     66600   1.5102804     -10.085909      0.61261462    -7.2081264     -0.20303501     1551.6091    
     66700   1.5010248     -10.129313      0.62310949    -7.2549169      0.54039019     1551.3299    
     66800   1.4990092     -10.078314      0.61473482    -7.2153154      0.039439515    1551.1068    
     66900   1.500999      -10.119929      0.62223911    -7.2464417      0.2868465      1550.9994    
     67000   1.501018      -10.182181      0.60700943    -7.323895      -0.4684505      1552.8717    
     67100   1.4973452     -10.162776      0.60143775    -7.3155706     -0.51780575     1553.6274    
     67200   1.4967304     -10.099122      0.6257363     -7.2285403      0.020244516    1552.8419    
     67300   1.4840397     -9.9739871      0.62738964    -7.1207857      0.34876961     1552.9168    
     67400   1.491298      -10.040194      0.63413787    -7.1693576      0.14613932     1553.0081    
     67500   1.4907095     -10.127232      0.61185629    -7.27956       -1.0493699      1553.6105    
     67600   1.4901883     -10.148342      0.6181896     -7.2951189      0.89423661     1551.9306    
     67700   1.5040094     -10.115355      0.61923425    -7.2403577      0.29893781     1549.4209    
     67800   1.4934973     -10.178079      0.60993562    -7.3281471      0.16656181     1547.3174    
     67900   1.4965692     -10.116069      0.61544187    -7.2560234      0.85961531     1546.4177    
     68000   1.4927033     -10.07712       0.63371771    -7.204597       0.099803568    1548.2813    
     68100   1.513505      -10.017049      0.61976706    -7.1272775      0.0090973985   1551.3252    
     68200   1.4865109     -10.004198      0.60992245    -7.1647573      0.079626171    1553.4124    
     68300   1.4975627     -9.9759579      0.61777087    -7.112093      -0.090910777    1553.5555    
     68400   1.4834697     -10.05721       0.62502176    -7.2072312      0.18073719     1552.7171    
     68500   1.5146852     -10.083223      0.62167681    -7.189771       0.24698224     1552.3045    
     68600   1.5038948     -10.140861      0.6321846     -7.2530854     -0.13163352     1551.783     
     68700   1.5031886     -10.044864      0.62991706    -7.1604154      0.09903978     1550.8994    
     68800   1.4790648     -9.9678253      0.61337744    -7.1360976      0.028141658    1551.0045    
     68900   1.4757595     -10.041471      0.61373684    -7.214341       0.86711667     1550.1468    
     69000   1.4833436     -10.056627      0.63769215    -7.1941673      0.31385716     1549.3977    
     69100   1.510396      -10.04415       0.60617281    -7.172635       0.68863276     1550.4467    
     69200   1.4976978     -10.015234      0.6233825     -7.1455552      0.47349747     1552.9765    
     69300   1.5040882     -10.054483      0.62847026    -7.1701311     -0.27770041     1553.9065    
     69400   1.4944997     -10.043426      0.62635219    -7.1755733      0.22996106     1553.6154    
     69500   1.4796051     -10.023936      0.60330654    -7.2014692      0.053521375    1553.1118    
     69600   1.4970908     -10.010752      0.62587502    -7.1394906     -0.077691612    1551.29      
     69700   1.4984657     -10.048454      0.62965482    -7.1713511      0.24766962     1549.1896    
     69800   1.4982312     -10.097677      0.62987406    -7.2207067      0.47541773     1549.1022    
     69900   1.4904488     -10.092753      0.62972864    -7.2275996      0.40066278     1549.666     
[...]
   1482400   1.072343      -10.737597      0.4492375     -8.6800243      0.079497622    1484.1738    
   1482500   1.0825783     -10.632464      0.45756528    -8.5512119      0.15043835     1482.3095    
   1482600   1.0804597     -10.763299      0.45544528    -8.6873443      0.53282603     1481.7726    
   1482700   1.085634      -10.682585      0.4507838     -8.6035316      0.32530247     1482.4969    
   1482800   1.0700863     -10.622548      0.46443772    -8.5531598      0.92122672     1484.5302    
   1482900   1.0633267     -10.654466      0.45244264    -8.6072111     -0.15602622     1486.03      
   1483000   1.0724853     -10.672115      0.45190284    -8.611663       0.02826427     1486.3845    
   1483100   1.0864596     -10.696458      0.4671755     -8.5997744     -0.69523499     1485.8193    
   1483200   1.0639489     -10.736631      0.45798686    -8.6828987     -1.2047711      1483.9486    
   1483300   1.081152      -10.73775       0.44641548    -8.6697866     -0.33198953     1482.3687    
   1483400   1.0704558     -10.776062      0.44826297    -8.7222937      0.9418628      1482.016     
   1483500   1.0783507     -10.779829      0.4555524     -8.7069308     -0.29993739     1483.2517    
   1483600   1.060878      -10.731191      0.4457253     -8.6943261     -0.51430447     1485.3778    
   1483700   1.0516948     -10.72369       0.44248279    -8.7038402     -0.38916858     1486.2648    
   1483800   1.0694572     -10.789674      0.45774301    -8.7279232      0.27635426     1485.6708    
   1483900   1.0828612     -10.714637      0.45972578    -8.6308002     -0.73668557     1484.6227    
   1484000   1.0653621     -10.744862      0.46492095    -8.6820758     -0.39188563     1484.1678    
   1484100   1.0598554     -10.723003      0.45189211    -8.6815051      0.35252875     1483.7371    
   1484200   1.0646827     -10.647019      0.45545632    -8.5947168     -0.016386125    1482.7233    
   1484300   1.0800381     -10.718959      0.44612598    -8.6529563     -0.040095111    1482.8493    
   1484400   1.0606288     -10.687328      0.45266154    -8.6439008     -0.24130496     1482.8427    
   1484500   1.0705629     -10.706778      0.46040844    -8.6407038     -0.60678935     1482.7107    
   1484600   1.0625551     -10.789174      0.46154405    -8.7339748     -0.069883937    1483.8776    
   1484700   1.0692027     -10.724588      0.44201576    -8.6789467     -0.54510699     1486.2871    
   1484800   1.0599056     -10.751531      0.45271175    -8.7091374     -0.35669766     1487.4983    
   1484900   1.0790361     -10.692457      0.44902933    -8.6250535     -0.68105551     1486.967     
   1485000   1.0766976     -10.715735      0.46724926    -8.6336192     -0.4550517      1485.8784    
   1485100   1.0795058     -10.695038      0.46274306    -8.6132164      0.014384319    1484.3704    
   1485200   1.0749043     -10.700304      0.4552904     -8.632837       0.90215658     1483.2053    
   1485300   1.0700371     -10.65066       0.46875316    -8.5770302      0.5357908      1483.4089    
   1485400   1.0833222     -10.736829      0.46442717    -8.6475993     -0.23961349     1483.7359    
   1485500   1.0673673     -10.707188      0.45696206    -8.6493529      0.004334769    1483.4109    
   1485600   1.0681139     -10.652484      0.47010538    -8.5803862      0.46180573     1483.6087    
   1485700   1.0723441     -10.711279      0.43992362    -8.663018      -0.3034416      1484.3455    
   1485800   1.0700304     -10.747958      0.46517893    -8.6779121     -0.15987111     1483.9461    
   1485900   1.069731      -10.770827      0.45409354    -8.7123155      1.4246657      1483.0651    
   1486000   1.0585126     -10.67253       0.45143215    -8.6335061      0.059907666    1482.5452    
   1486100   1.0613016     -10.706102      0.44899504    -8.6653319      0.2962207      1482.5731    
   1486200   1.0635026     -10.670926      0.45530999    -8.6205397      0.0011515238   1482.7777    
   1486300   1.0705562     -10.604783      0.45428973    -8.5448379      0.07492766     1484.3532    
   1486400   1.0707374     -10.709398      0.45084305    -8.6526274     -0.023596682    1486.5961    
   1486500   1.0750925     -10.781391      0.44061129    -8.7283207     -0.77672437     1487.483     
   1486600   1.0649228     -10.728977      0.45589587    -8.6758743      0.21948487     1484.1734    
   1486700   1.0539022     -10.691229      0.45667847    -8.6538727      0.69960676     1480.2581    
   1486800   1.0530206     -10.77063       0.44583216    -8.7454432      0.9794163      1478.2016    
   1486900   1.0534924     -10.721733      0.46048737    -8.6811827      0.66958265     1479.391     
   1487000   1.0585064     -10.721165      0.45080075    -8.6827811      0.55531785     1483.4569    
   1487100   1.0708141     -10.713161      0.44755395    -8.6595649      0.17597721     1489.5114    
   1487200   1.0733474     -10.694181      0.45656743    -8.6277717     -1.1590421      1492.4233    
   1487300   1.0827662     -10.726252      0.45970336    -8.64258       -0.33269791     1490.2435    
   1487400   1.0730828     -10.645374      0.45525814    -8.5806709      0.069376256    1484.4941    
   1487500   1.0886691     -10.673558      0.47639649    -8.5643394      2.5311938      1478.7962    
   1487600   1.0610141     -10.659917      0.46892094    -8.5996524      1.0422897      1478.293     
   1487700   1.0525252     -10.679513      0.47429394    -8.626607       0.055844648    1482.7395    
   1487800   1.0674263     -10.669364      0.47357682    -8.5948261     -0.70331321     1487.5136    
   1487900   1.0788517     -10.631912      0.4463012     -8.5675132     -0.036810835    1489.28      
   1488000   1.0641269     -10.658494      0.45997852    -8.6025031     -0.080783971    1487.958     
   1488100   1.0723328     -10.621802      0.4553415     -8.5581399      0.058805176    1484.7698    
   1488200   1.0769295     -10.663469      0.45133867    -8.5969155      1.7271742      1482.3225    
   1488300   1.0489819     -10.627827      0.44460585    -8.6099236      0.7163676      1482.5941    
   1488400   1.0773556     -10.694356      0.44481449    -8.6336881      0.58458928     1483.7791    
   1488500   1.0646874     -10.696663      0.45808081    -8.6417291     -0.16863894     1485.3031    
   1488600   1.0470493     -10.624438      0.43990899    -8.6141301     -0.089648865    1486.3284    
   1488700   1.0820255     -10.678879      0.46165119    -8.5943704      0.25758019     1485.8625    
   1488800   1.0771899     -10.666938      0.45160558    -8.5997274      0.59693967     1484.8425    
   1488900   1.066438      -10.702915      0.44814006    -8.6552955      0.82310699     1484.2745    
   1489000   1.0766967     -10.716974      0.44721229    -8.6548961      0.17911101     1483.9249    
   1489100   1.0584762     -10.702482      0.4552967     -8.659648      -0.16429067     1484.0862    
   1489200   1.0546272     -10.713352      0.45247404    -8.6791129     -0.11962131     1484.1412    
   1489300   1.074544      -10.711929      0.45273845    -8.647554      -0.85833628     1484.7961    
   1489400   1.0692098     -10.699166      0.45793899    -8.6375908     -0.37578705     1484.2604    
   1489500   1.0790826     -10.693594      0.45044487    -8.6247059      0.48891572     1482.6932    
   1489600   1.0604338     -10.64943       0.45464567    -8.6043109     -0.017618242    1481.9169    
   1489700   1.0641674     -10.775528      0.47038558    -8.7090691      0.65037173     1481.3577    
   1489800   1.0718634     -10.773494      0.46252276    -8.7033554      0.86385803     1482.7191    
   1489900   1.052719      -10.735397      0.45766861    -8.6988254     -0.88025156     1485.0526    
   1490000   1.0599541     -10.730099      0.45967427    -8.6806707     -0.85359697     1486.6416    
   1490100   1.0696474     -10.738477      0.46694361    -8.6672412     -0.30740556     1486.0946    
   1490200   1.0565276     -10.738712      0.44501927    -8.7090779      0.48854965     1484.6406    
   1490300   1.0682749     -10.690181      0.44885112    -8.639096      -0.30293888     1483.2277    
   1490400   1.081188      -10.768719      0.4532561     -8.6938613     -0.36708389     1482.4251    
   1490500   1.0819723     -10.728778      0.45761984    -8.6483804      0.87406224     1482.146     
   1490600   1.0638737     -10.760948      0.45363275    -8.7116823     -0.16332694     1483.7612    
   1490700   1.066946      -10.711021      0.46981655    -8.6409634     -0.17137548     1485.6186    
   1490800   1.0768449     -10.676002      0.46046146    -8.6004533     -1.3606777      1486.7515    
   1490900   1.0777286     -10.701935      0.46002084    -8.6255009     -0.54312634     1485.5679    
   1491000   1.0694632     -10.689328      0.45701516    -8.6282969     -0.37795777     1482.8836    
   1491100   1.0600134     -10.735741      0.45550599    -8.6903918      0.821596       1480.337     
   1491200   1.069875      -10.621384      0.46625427    -8.5504955      0.79210442     1479.5343    
   1491300   1.0696921     -10.760329      0.45669307    -8.699276      -0.46471326     1481.1775    
   1491400   1.0683371     -10.690204      0.45305897    -8.6348182     -0.14406013     1484.6394    
   1491500   1.0754303     -10.73209       0.44422841    -8.6748955     -0.95323885     1487.565     
   1491600   1.0728013     -10.62995       0.46024598    -8.5606811     -0.92833808     1487.7699    
   1491700   1.0875725     -10.649215      0.45767396    -8.5603642      0.2932433      1485.4739    
   1491800   1.0743412     -10.636881      0.45534357    -8.570205       0.67702351     1482.6629    
   1491900   1.0713213     -10.696291      0.47280644    -8.6166814      0.44760676     1480.8481    
   1492000   1.0752274     -10.685482      0.4528119     -8.6200084      0.65025807     1481.0603    
   1492100   1.0651249     -10.675707      0.46171357    -8.6164842     -0.35291413     1484.4051    
   1492200   1.0636856     -10.627853      0.44232104    -8.5901808     -0.27760421     1488.1021    
   1492300   1.0701947     -10.700715      0.43829459    -8.6573067     -0.17572226     1488.8004    
   1492400   1.0726724     -10.740317      0.44810602    -8.6833813      0.35534097     1485.1288    
   1492500   1.0697603     -10.776078      0.45752867    -8.714088       0.53630127     1480.6781    
   1492600   1.069998      -10.706531      0.45473951    -8.6469731      1.6103108      1478.1428    
   1492700   1.0564136     -10.782108      0.46062139    -8.7370429      0.85769354     1479.6469    
   1492800   1.0792789     -10.784916      0.44432054    -8.7218574     -0.035034144    1484.2023    
   1492900   1.0720128     -10.82261       0.44571962    -8.7690503     -0.88570141     1489.0865    
   1493000   1.0572397     -10.849063      0.45095773    -8.812422      -0.53770683     1490.0432    
   1493100   1.0491014     -10.783129      0.45422393    -8.7554277     -0.60434615     1486.7797    
   1493200   1.0930032     -10.648865      0.4839327     -8.5256104      0.30990787     1482.2332    
   1493300   1.0652514     -10.588882      0.45781756    -8.5333652      1.0166756      1480.4153    
   1493400   1.0673492     -10.678824      0.45328273    -8.6246957      0.086223917    1481.6402    
   1493500   1.064182      -10.708725      0.444103      -8.6685268     -0.50682037     1483.5288    
   1493600   1.0926935     -10.657237      0.45642356    -8.561956       0.083823866    1484.7655    
   1493700   1.0655223     -10.64132       0.45724553    -8.5859688     -0.39234358     1486.5392    
   1493800   1.0652925     -10.626134      0.45490539    -8.5734677     -1.422584       1486.7519    
   1493900   1.0630677     -10.726021      0.45797772    -8.6736196     -0.11405811     1483.6719    
   1494000   1.0779167     -10.656485      0.45696564    -8.5828239     -0.087760337    1480.3188    
   1494100   1.0617094     -10.596148      0.46764688    -8.5361147     -0.11827514     1480.1639    
   1494200   1.0664643     -10.638947      0.46256877    -8.57686        0.49786077     1482.7443    
   1494300   1.0623385     -10.644986      0.46863717    -8.5830184     -1.5350813      1486.138     
   1494400   1.0753628     -10.685818      0.45866642    -8.6142873     -0.80896499     1487.4404    
   1494500   1.047548      -10.662703      0.4507382     -8.6408181     -0.47786823     1485.3922    
   1494600   1.0670431     -10.749683      0.45747634    -8.6918206      0.10442304     1481.1147    
   1494700   1.0864116     -10.689729      0.46269399    -8.597599       1.0453277      1478.109     
   1494800   1.0603087     -10.724831      0.45437387    -8.6801715     -0.0090157268   1479.5414    
   1494900   1.0596116     -10.722611      0.45798789    -8.6753824     -0.56725384     1483.9846    
   1495000   1.0623885     -10.749718      0.46630529    -8.6900077     -0.52023273     1488.8616    
   1495100   1.0735508     -10.675815      0.45921159    -8.6064564     -0.46704393     1491.4037    
   1495200   1.07393       -10.669009      0.46300365    -8.5952896     -0.0094592278   1489.8071    
   1495300   1.0666088     -10.750911      0.4557342     -8.6954421      0.82100713     1485.4022    
   1495400   1.0640683     -10.681729      0.46164273    -8.6241612      0.88319004     1480.1867    
   1495500   1.0742686     -10.673557      0.47243598    -8.5898978      0.62284521     1477.4352    
   1495600   1.075785      -10.666118      0.45842451    -8.5941959      0.23897167     1479.8244    
   1495700   1.0779942     -10.660814      0.44577728    -8.5982257      0.54920239     1484.9324    
   1495800   1.0667141     -10.645937      0.441276      -8.6047682      0.054132263    1489.5194    
   1495900   1.0764658     -10.643059      0.45716874    -8.571371      -0.76973217     1489.8851    
   1496000   1.0700454     -10.708209      0.43941086    -8.6639087      0.2181545      1485.4347    
   1496100   1.0667585     -10.694101      0.45566075    -8.6384803      1.5456492      1479.1305    
   1496200   1.0391589     -10.719345      0.46047168    -8.7003082      0.24807971     1476.0671    
   1496300   1.0719101     -10.671375      0.45752162    -8.6061673      0.54316004     1477.5107    
   1496400   1.0726235     -10.774749      0.46144998    -8.7045431     -0.57739182     1482.7168    
   1496500   1.0792391     -10.671661      0.45866531    -8.5943177     -0.41704169     1488.4126    
   1496600   1.0638781     -10.700222      0.45626444    -8.648318      -0.065364674    1490.8182    
   1496700   1.0592793     -10.775998      0.46875913    -8.718497      -1.3149162      1488.4208    
   1496800   1.0603869     -10.737635      0.45331346    -8.6939179      0.16457049     1482.7127    
   1496900   1.0876474     -10.773086      0.45709502    -8.6847016      1.03739        1477.3497    
   1497000   1.0821617     -10.737662      0.46992495    -8.6446756      0.77376766     1477.3667    
   1497100   1.0671094     -10.676566      0.46380983    -8.6122704      0.48596675     1481.3804    
   1497200   1.0542673     -10.707475      0.45573788    -8.6705121     -0.37220241     1484.952     
   1497300   1.0694568     -10.56669       0.46284102    -8.499842       0.33978064     1486.2014    
   1497400   1.0756508     -10.634014      0.45896152    -8.5617556     -0.16437611     1486.0156    
   1497500   1.0518619     -10.709163      0.4573737     -8.6741722      0.26625853     1484.3712    
   1497600   1.0838051     -10.732145      0.46260805    -8.64401        0.88877438     1482.4606    
   1497700   1.076882      -10.655251      0.4621219     -8.5779863      0.23093639     1482.2902    
   1497800   1.0705701     -10.702134      0.46333126    -8.6331261     -1.0050378      1483.5317    
   1497900   1.0678777     -10.648801      0.45452593    -8.5926366     -0.38139089     1484.3572    
   1498000   1.0729724     -10.611192      0.44316301    -8.5587492     -0.14217972     1484.852     
   1498100   1.060106      -10.69532       0.44671351    -8.6586242     -0.72253662     1484.9281    
   1498200   1.0630519     -10.702932      0.45532297    -8.6532083     -1.2335638      1483.7755    
   1498300   1.0602513     -10.69683       0.4662144     -8.6404154      0.15587949     1481.6412    
   1498400   1.0826533     -10.668653      0.46193987    -8.5829143      0.44243365     1480.794     
   1498500   1.0795937     -10.746659      0.44927654    -8.6781722      0.79845941     1482.0972    
   1498600   1.0509014     -10.780363      0.45281544    -8.7513707     -0.026682082    1484.7991    
   1498700   1.0708701     -10.762714      0.44797394    -8.7086137      0.28092472     1486.5626    
   1498800   1.08945       -10.685929      0.45188998    -8.6000456      0.3029424      1486.8636    
   1498900   1.0765171     -10.635661      0.45012476    -8.57094       -0.59955886     1485.7986    
   1499000   1.0602774     -10.656889      0.45675994    -8.6098902      0.42966334     1482.9054    
   1499100   1.087416      -10.615218      0.46570608    -8.5185693      1.0067273      1480.1821    
   1499200   1.0568997     -10.608506      0.45789394    -8.5654385      1.0604023      1480.1499    
   1499300   1.083513      -10.657863      0.45547074    -8.5773039      0.72128117     1482.9586    
   1499400   1.065892      -10.740497      0.45081507    -8.6910214     -0.45630117     1486.7758    
   1499500   1.0824483     -10.78186       0.43733778    -8.7210306     -0.11603051     1488.5353    
   1499600   1.0730954     -10.678674      0.45995611    -8.6092536      0.11486632     1487.0845    
   1499700   1.0769872     -10.709741      0.47158736    -8.6228526     -0.27384634     1483.468     
   1499800   1.0725201     -10.669124      0.45765642    -8.6028669     -0.27300605     1480.0805    
   1499900   1.0631191     -10.645005      0.45428233    -8.5962211      0.90701074     1479.0081    
   1500000   1.0763224     -10.71052       0.45357559    -8.6426406      0.95463208     1481.0805    
   1500011   1.0686198     -10.666011      0.47376794    -8.5894914     -0.55015038     1481.4995    
Loop time of 7659.51 on 8 procs for 1000000 steps with 8985 atoms

Performance: 112800.883 tau/day, 130.557 timesteps/s
100.0% CPU use with 8 MPI tasks x 1 OpenMP threads

MPI task timing breakdown:
Section |  min time  |  avg time  |  max time  |%varavg| %total
---------------------------------------------------------------
Pair    | 3333.2     | 3366       | 3424.1     |  49.5 | 43.95
Bond    | 27.913     | 28.358     | 29.281     |   8.1 |  0.37
Kspace  | 694.44     | 747.15     | 781.93     |  97.3 |  9.75
Neigh   | 2193.1     | 2196.3     | 2200.4     |   5.5 | 28.67
Comm    | 1036.7     | 1049.7     | 1057.6     |  21.6 | 13.70
Output  | 0.81568    | 0.83268    | 0.91542    |   3.4 |  0.01
Modify  | 147.01     | 174.61     | 199.05     | 170.7 |  2.28
Other   |            | 96.58      |            |       |  1.26

Nlocal:        1123.12 ave        1134 max        1112 min
Histogram: 1 0 2 0 1 1 1 0 1 1
Nghost:        5908.75 ave        5938 max        5884 min
Histogram: 1 0 1 1 1 3 0 0 0 1
Neighs:        88834.9 ave       92746 max       85424 min
Histogram: 1 0 1 1 1 2 1 0 0 1
FullNghs:       177670 ave      184896 max      171795 min
Histogram: 1 1 1 1 0 2 1 0 0 1

Total # of neighbors = 1421358
Ave neighs/atom = 158.19232
Ave special neighs/atom = 1.3355593
Neighbor list builds = 207805
Dangerous builds = 0

write_data end.data
System init for write_data ...
PPPM initialization ...
  using 12-bit tables for long-range coulomb (src/kspace.cpp:342)
  G vector (1/distance) = 1.1046966
  grid = 20 20 20
  stencil order = 4
  estimated absolute RMS force accuracy = 0.0083163894
  estimated relative force accuracy = 0.0083163894
  using double precision KISS FFT
  3d grid and FFT values/proc = 3375 1200
Generated 0 of 6 mixed pair_coeff terms from geometric mixing rule
Total wall time: 3:16:14
