ITEM: TIMESTEP
20100
ITEM: NUMBER OF ATOMS
10507
ITEM: BOX BOUNDS pp pp pp
-50.0 50.0
-50.0 50.0
0.0 86.68
ITEM: ATOMS x y z
-1.82928 -7.70897 0.263963
-0.717777 -7.82012 0.0691081
-0.209217 -8.03654 0.217262
0.422876 -8.0063 0.0181781
1.01032 -8.0606 0.0616156
1.59747 -8.01355 0.358919
2.25827 -7.87355 0.517602
-3.64926 -7.34384 0.62199
-3.08583 -7.48824 0.392556
-3.4363 -6.90657 0.243156
-2.44091 -7.51287 0.287246
-1.19842 -7.44108 0.0624267
3.16669 -7.28082 0.395908
3.74653 -7.04816 0.143968
4.17708 -6.87832 0.668209
-4.47464 -6.25468 0.0102383
-4.11682 -6.74582 0.497884
4.73335 -6.80362 0.323877
5.30948 -6.30963 0.190371
-5.04637 -5.95766 0.0128884
5.28017 -5.8279 0.15796
5.49211 -5.9699 0.659902
-6.13274 -5.27449 0.257976
-5.53139 -5.43984 0.465479
-5.45945 -5.40688 0.019369
5.7538 -5.22278 0.270565
-7.101 -4.4009 0.234561
-6.6892 -4.84238 0.466634
6.33296 -4.27716 0.396327
-7.47311 -3.79035 0.300266
6.64186 -3.87838 0.644982
7.16869 -3.74439 0.357012
7.73947 -3.73605 0.0892691
7.64447 -3.22704 0.539682
-7.53807 -2.69012 0.37816
7.87973 -2.69799 0.330967
8.20119 -2.34442 0.161629
-8.03143 -2.02106 0.196456
7.89967 -1.92264 0.225653
-8.24751 -1.48061 0.0152766
-8.18502 -1.24492 0.536435
7.55762 -1.57703 0.616151
-8.76386 -0.298395 0.114484
-8.61266 -0.973397 0.040189
-8.46801 -0.338008 0.578418
7.92141 -0.700011 0.19815
7.84092 0.147655 0.285411
-8.85392 0.799291 0.222614
8.0371 0.767832 0.55486
-8.1611 1.06648 0.133119
-8.08829 1.59231 0.459472
7.50665 1.3646 0.553544
7.83519 1.49606 0.0841855
7.74676 1.91894 0.268869
-7.46607 2.92738 0.53197
7.74052 2.45255 0.382805
8.00416 2.84491 0.503015
7.22499 3.54502 0.47423
-7.77975 3.87301 0.0989954
7.10212 3.76638 0.630881
-6.44332 4.7622 0.209057
-6.73349 4.25135 0.33036
-6.23188 4.7057 0.600129
6.39479 4.79668 0.0830699
6.74426 4.23575 0.134433
-5.94341 4.95567 0.195246
-5.93208 5.20245 0.656817
-5.56317 5.42206 0.0984342
-5.30285 5.38131 0.485648
5.85057 5.12033 0.27931
-5.02921 5.78079 0.122884
5.60722 5.98857 0.5083
-4.486 6.45285 0.145345
-3.82291 6.58954 0.0833588
-4.0873 6.3145 0.51195
5.19212 6.26842 0.152244
5.10587 6.78635 0.492004
5.62743 6.52875 0.527845
-3.43847 7.0039 0.223899
-2.95338 7.48053 0.518426
4.08448 7.35351 0.513238
3.67341 7.18705 0.0733408
4.52357 6.91792 0.338257
-2.9711 7.53779 0.0112612
-2.54821 7.73051 -0.0137397
-2.51989 7.87119 0.6382
-1.79719 8.13099 0.11857
1.31462 7.89056 0.553265
2.09711 7.56208 0.195382
3.1418 7.71471 0.580555
3.37446 7.48771 0.0062511
-2.08462 8.33244 0.56356
-1.58744 8.60327 0.609143
-1.28931 8.21663 0.413366
0.266574 8.21005 0.36451
1.26735 -8.32365 0.858954
-1.78466 -7.95892 0.721501
-1.18284 -7.88143 0.682835
-1.56373 -7.61454 1.00783
-0.55124 -7.80673 0.787114
0.0478988 -7.89994 0.862463
0.709057 -8.18238 0.774314
1.7108 -7.95397 0.958524
2.24793 -7.835 1.15222
-3.85979 -6.95165 0.934298
-0.521864 -7.40037 1.16286
2.73707 -7.41778 0.741934
3.74916 -7.07146 1.08831
-5.02986 -6.23721 0.713777
5.20864 -6.2674 0.780362
4.66242 -6.20425 1.06965
5.53209 -5.64083 1.2503
-6.20853 -5.12812 0.835055
-5.72113 -5.12325 1.30719
-5.39146 -5.27807 1.03626
6.00009 -5.40583 0.81074
-7.02364 -4.43329 1.06606
6.22514 -4.80326 0.668759
-7.02034 -3.87351 1.08729
6.66869 -4.08734 1.13819
7.62176 -3.81386 0.701719
7.60372 -3.20786 1.33022
-7.73185 -2.80713 1.00227
-7.98522 -2.3317 1.18691
-7.40614 -2.98115 0.825527
-8.45098 -1.73136 0.794228
-7.97006 -1.97554 0.719793
7.85665 -2.16527 0.826751
-8.05655 -1.37299 1.17527
7.47989 -1.19547 1.15791
-8.14343 -0.780548 0.73169
7.93942 -0.807267 0.880296
-8.54672 -0.273723 1.18585
8.25813 0.217425 0.806953
-9.14161 0.604842 0.653463
-8.68949 0.298152 1.02283
-8.92133 1.03145 1.05811
7.45648 1.46888 1.17644
-7.97424 1.92238 0.967561
7.34699 1.90159 1.13411
-8.20995 2.6174 0.950071
7.55135 2.54125 0.950297
-7.4958 3.23859 1.02856
7.30363 3.60319 1.24392
7.70038 3.18421 1.03166
-7.55877 4.06375 0.625578
-7.32993 3.6305 0.930599
-7.15751 4.18495 1.02501
6.63226 4.06037 0.790657
-6.59655 4.45264 0.85491
6.22132 4.58822 0.947756
6.46719 4.5686 1.11926
-5.71681 5.45475 1.25302
5.62735 5.55897 0.946808
5.84755 5.03168 1.23927
-5.34918 5.58864 1.17214
-4.43166 6.16623 0.706849
-4.5826 5.81231 1.19655
-3.80458 6.6457 1.15154
5.47369 6.61405 1.07004
-3.27113 7.13886 0.928898
4.82087 7.17294 0.890439
4.37756 7.2562 1.20869
-1.94395 7.86119 0.7061
-0.655257 8.17451 0.860789
0.46851 8.01951 1.29761
1.14572 7.93544 1.13581
2.00387 7.75888 0.756666
2.76106 7.89442 1.05424
3.37736 7.67903 1.20903
3.93409 7.56186 1.10815
-1.24984 8.83936 0.648256
-0.975701 8.66549 1.17373
-0.0459478 8.16209 0.77982
0.573779 8.09523 0.907832
-0.673479 9.06669 1.21645
1.93463 -8.31977 1.8028
-2.89745 -7.67667 1.38022
-1.05833 -7.63506 1.53325
0.141803 -7.57874 1.25667
0.693587 -7.92008 1.37422
1.09043 -8.03229 1.428
2.59479 -8.00446 1.72562
2.87567 -7.56497 1.31493
-3.77252 -6.90688 1.44624
-3.22281 -7.34533 1.75577
-2.08045 -7.36723 1.51305
-0.0179573 -7.48754 1.87121
3.21421 -7.1704 1.38369
2.99618 -7.4453 1.93225
3.43213 -6.89298 1.77315
-4.44876 -6.83772 1.55147
3.91171 -6.70284 1.59441
4.25914 -6.71036 1.53718
4.58968 -6.29039 1.88737
-5.16952 -6.18336 1.38426
-5.4222 -5.79649 1.71418
-5.23899 -5.96005 1.95814
5.37126 -6.21013 1.41778
5.59026 -5.59705 1.87019
-6.66414 -4.85044 1.65249
-6.1294 -4.99901 1.68936
6.01756 -5.2716 1.75189
6.44677 -5.03484 1.90054
6.78754 -4.85191 1.40014
7.08444 -4.35257 1.58517
-7.22195 -3.79028 1.56864
-6.83797 -4.15945 1.94455
7.39574 -3.82622 1.36399
7.15585 -3.8939 1.9667
-7.9076 -3.31986 1.96337
7.47609 -3.46665 1.59155
-8.15492 -2.71245 1.68856
-7.83884 -2.81586 1.57879
7.57789 -2.58004 1.39309
-8.09074 -1.89208 1.35261
7.29599 -2.1662 1.73184
-7.96908 -1.00413 1.78202
7.37481 -1.29913 1.82422
-8.36025 -0.685805 1.3661
-8.43963 -0.641942 1.93986
7.65279 -0.805128 1.73315
-8.35386 0.0338966 1.56445
8.12908 -0.246253 1.6499
7.97691 0.31854 1.39448
-8.97377 1.12836 1.72219
7.98169 1.06494 1.61552
-7.99073 1.82479 1.69265
7.59264 1.73131 1.60719
-7.93543 2.37198 1.48424
-7.44896 2.784 1.73136
7.70079 2.46108 1.4284
-7.43931 3.41768 1.60465
7.46799 3.07763 1.5459
7.04344 3.38632 1.91224
-7.11525 3.949 1.61146
7.02949 4.12767 1.32102
7.13963 4.09465 1.75007
-6.18014 4.62702 1.49836
6.69507 4.45271 1.66846
-5.83692 5.17693 1.69481
6.0624 5.37663 1.68882
6.53278 4.98396 1.88415
-5.44867 5.67881 1.74357
-4.76888 5.83112 1.74351
5.85945 5.85251 1.32853
5.62975 6.22623 1.63983
5.89607 5.97973 1.87362
-4.47169 6.60364 1.67986
-3.7356 6.79237 1.75777
4.78241 6.62807 1.57109
5.21282 6.50212 1.76092
-3.30624 7.13289 1.59562
-2.89016 7.49522 1.34659
-2.71119 7.44516 1.93952
-2.04278 7.43972 1.62671
4.43702 7.14384 1.83278
-1.56729 8.03514 1.64184
1.31591 7.96522 1.75752
1.71304 7.82718 1.33454
2.16967 8.00743 1.4118
2.95466 7.92189 1.59187
3.36239 7.58382 1.79294
3.97764 7.60458 1.72624
-0.806185 8.45676 1.75893
-0.311823 8.56628 1.36814
0.098175 8.22918 1.68818
1.38269 -8.16491 2.09451
-2.54769 -7.59739 2.01821
-2.79483 -7.50122 2.61046
-0.729634 -7.57222 2.45909
0.175297 -7.89885 2.24511
0.758635 -8.12523 2.21388
1.3042 -7.84164 2.48618
2.59912 -7.75771 2.29311
-3.72308 -7.0928 1.9856
-4.12329 -6.8999 2.54926
-1.95228 -7.30371 2.55558
-1.15055 -7.48335 2.13883
3.17944 -7.46064 2.54939
3.75846 -7.30984 2.57753
-4.33561 -6.79675 2.01416
-4.73008 -6.27418 1.93113
4.18356 -6.76889 2.18315
4.60089 -6.51069 2.4093
5.50047 -6.38075 2.01856
-5.40309 -5.61824 2.43242
4.96968 -6.0292 2.54698
-5.98602 -5.29816 2.12977
6.07933 -5.56536 2.49485
-6.30785 -4.76923 2.16912
6.37139 -4.69505 2.47055
-6.90993 -4.05504 2.50317
6.72191 -4.21723 2.24029
-7.97018 -3.46715 2.38512
7.36068 -2.95304 2.02418
7.25024 -2.66359 2.40768
-8.06583 -2.20583 2.12081
-8.02911 -1.3488 2.22338
-8.25164 -0.882782 2.50069
7.88787 -0.999542 2.26844
7.87545 -0.334261 2.06548
-8.2207 0.771133 2.12057
-8.02992 0.414639 2.64101
8.10289 0.371961 2.41314
-8.23882 1.32659 2.05075
-8.64612 1.19394 2.25182
8.13808 0.986584 2.21908
-7.7887 2.03585 2.03137
-8.06352 1.8625 2.32182
7.96561 1.73193 2.18628
7.43522 2.76242 2.08117
7.51669 2.31039 2.14134
-7.51405 3.29379 2.57974
7.26865 3.07899 2.44682
-7.34495 3.78201 2.15382
-6.96509 3.95868 2.23497
6.93146 4.0547 2.17012
-6.19555 4.37913 2.12771
-5.77899 4.86148 2.17153
6.83034 4.49806 2.17847
6.22484 5.45194 2.16771
-5.07707 6.06976 2.57672
-4.61364 6.37437 2.25234
-3.84267 6.71501 2.38354
-3.24125 7.39905 2.16427
-2.78417 7.42077 2.62671
3.0615 7.45853 2.26888
4.22287 7.4999 2.29083
-2.24758 7.62663 2.25246
-1.50541 8.02839 2.23554
0.595882 8.08679 2.01297
1.14372 7.86793 2.23514
1.94486 7.98297 1.94854
2.58338 7.81533 2.05745
3.6235 7.5122 2.38647
-0.821548 8.35966 2.46841
-0.0605608 8.39959 2.41324
-1.39913 -7.52031 2.71294
-0.171082 -7.74785 2.84089
0.451028 -7.78059 2.98795
1.49641 -7.82429 3.08786
1.91607 -7.52613 3.28732
2.38979 -7.53317 2.80786
-4.35677 -6.92884 3.1074
-3.50495 -7.15633 2.71324
-2.5005 -7.39588 2.70673
-1.70167 -7.35312 3.17603
-0.767869 -7.29608 3.19262
3.4457 -7.48401 3.06871
4.30695 -7.08817 3.06881
-4.66399 -6.66999 2.73334
-5.17169 -6.04316 2.81139
-5.34063 -5.54587 2.98084
4.78408 -6.12532 3.12326
5.9515 -5.65204 3.21247
5.84348 -6.16156 2.90236
-5.58098 -5.08099 3.15909
6.33837 -4.95583 2.91737
-6.05221 -4.9365 2.71699
-6.00745 -4.57185 3.23147
6.65528 -4.29687 2.78604
-7.74883 -3.73388 2.95445
-7.16125 -4.00303 2.86549
-6.61299 -3.96085 3.25153
7.13184 -4.00734 2.79422
-7.75665 -3.09914 2.82846
7.15947 -3.09845 2.69898
-7.88581 -2.39635 2.97528
7.27309 -2.83733 3.03741
-7.94161 -1.73664 3.10304
7.59107 -2.17497 2.61729
-8.20203 -1.04852 3.14702
7.712 -1.58293 2.76121
8.02155 -1.11871 2.91858
-8.08245 -0.32294 2.61426
7.67497 -0.627602 2.99898
-7.83438 0.249054 3.27631
7.8061 -0.190661 2.63392
-7.82829 0.648304 3.19242
8.08274 0.917696 2.84551
-8.25736 1.40956 2.75294
7.91495 1.54338 2.81563
-7.93211 1.88228 2.93455
7.48718 2.03655 2.72321
-7.65191 2.62037 2.67698
7.23969 2.85736 3.16331
-7.29663 2.99841 3.1395
-6.87224 4.15943 2.90164
-7.40042 3.93912 2.74703
-6.95281 3.6332 3.28872
-6.47935 4.22555 2.69242
7.05923 3.93368 2.83301
-6.16943 4.63705 3.12885
6.6259 4.53557 3.00936
-5.81375 5.12721 2.9249
6.78938 5.17265 3.0674
-5.51188 5.6757 2.82788
-4.50298 6.19274 2.8724
5.92093 5.71617 3.108
6.42611 5.84187 2.85948
-3.98474 6.79077 3.04952
3.94432 6.67037 3.17114
4.58788 6.49669 2.84311
5.16229 6.77828 2.8106
5.1151 6.50081 3.19507
5.62529 6.27078 2.89806
-2.98055 7.2691 3.19359
-2.34449 7.36063 2.91856
2.5098 7.47082 2.79156
3.02906 7.25538 2.84228
3.71244 7.02652 2.78614
-3.3261 7.73767 2.70442
-1.92621 7.57228 2.63481
-1.43927 7.6905 2.95453
-0.594726 8.16599 3.17079
2.18777 7.90462 2.78155
0.36406 8.37276 3.04565
1.04405 8.2908 3.06872
1.65158 8.18039 2.9138
-1.38561 -7.63733 3.63989
-0.734865 -7.8317 3.82202
0.272689 -8.00355 3.67986
0.910547 -7.66339 3.32844
1.47607 -7.80921 3.75278
2.26502 -7.75236 3.77663
-4.62805 -7.21166 3.95063
-3.96264 -7.40987 3.9343
-3.16517 -7.27471 3.59281
-2.58288 -7.37651 3.69047
-1.94653 -7.43713 3.76612
3.10684 -7.4433 3.61723
3.92163 -7.15318 3.51652
-4.7754 -6.43495 3.52312
4.74012 -6.64126 3.66571
5.21289 -6.61236 3.84972
5.55581 -6.28502 3.44288
-5.17699 -6.0073 3.44782
5.52485 -5.78783 3.74911
-6.25469 -5.46563 3.84771
-5.91873 -4.95687 3.52661
6.34527 -5.29188 3.51284
6.43547 -4.46452 3.48583
6.87075 -4.42939 3.93348
-7.32131 -3.93319 3.43669
-6.79678 -4.18344 3.79177
7.08428 -4.15453 3.38655
7.22625 -3.71516 3.76315
-7.58339 -3.40764 3.37158
7.5504 -3.37236 3.33774
-7.80966 -2.50386 3.62671
-7.76171 -1.98175 3.89223
7.25634 -2.24395 3.32524
7.64923 -1.84863 3.58518
-8.02764 -1.36707 3.65735
7.48863 -1.1966 3.55645
7.43165 -1.5295 3.87791
-8.12413 -0.732767 3.70112
7.30514 -0.41514 3.55062
-8.05251 -0.234967 3.50049
-8.11042 0.901119 3.68051
8.10699 0.598872 3.40098
8.53958 0.55998 3.73959
-8.01141 1.49179 3.40397
7.77289 1.17698 3.37144
-7.71545 2.15368 3.49166
7.58246 1.94059 3.35911
-7.21212 2.71819 3.77667
7.40014 2.61918 3.75445
-6.88217 3.72187 3.73331
7.10315 3.79683 3.68687
-6.61522 4.22764 3.29612
6.5276 4.67898 3.8614
7.01606 4.42494 3.43844
-5.17832 5.55471 3.31058
-5.45394 5.01712 3.76404
6.0996 5.24878 3.58137
-5.02205 5.74448 3.77728
5.53605 5.60595 3.65884
-4.38184 6.22019 3.46361
-3.54842 6.78179 3.52221
3.26581 6.62799 3.58115
3.98895 6.29286 3.6795
4.50643 6.26933 3.31224
5.00979 6.53517 3.92471
5.6165 6.74173 3.59552
-2.97136 7.22294 3.79413
-2.43074 7.37721 3.58532
2.75097 7.33486 3.29342
2.30793 7.36417 3.6448
-2.4204 7.60932 3.89094
-1.90565 7.58553 3.37961
1.36351 7.8145 3.82535
1.64488 7.72556 3.30287
-1.03882 8.22202 3.6261
-0.16817 8.3634 3.42987
0.104466 8.63828 3.81726
0.616033 8.65547 3.44256
1.19088 8.15123 3.58405
-0.209084 -7.92994 4.17079
0.386253 -7.95044 4.22866
0.793341 -7.85611 4.23818
1.37452 -8.10049 4.37609
1.97311 -7.79247 4.18364
2.43495 -7.69502 4.47435
3.09808 -7.78606 4.10171
-3.37023 -7.54587 4.14293
-3.45131 -7.14956 4.40138
-2.6969 -7.47219 4.43543
3.29062 -7.52545 4.46444
3.70896 -7.26829 4.07338
3.90591 -7.01695 4.46131
4.31685 -6.91657 3.98908
-5.03931 -6.2355 4.05385
-4.59922 -6.71676 4.25566
4.85188 -6.71213 4.26998
-6.01842 -5.76899 4.39153
-5.38111 -5.96124 4.019
-5.56141 -6.11181 4.60835
5.26531 -6.12536 4.13248
-6.5163 -5.35947 4.34434
-6.8891 -4.92748 4.21559
-6.90673 -4.30636 4.31596
-6.44722 -4.67097 4.14442
6.51782 -4.78717 4.33464
7.10977 -4.02397 4.32998
-7.52589 -3.51754 3.9445
-7.55476 -3.07222 4.54141
-7.46777 -3.12135 4.0304
7.22743 -3.37253 4.10951
-7.59442 -2.539 4.17412
7.48459 -2.87463 4.30965
7.63191 -2.33614 4.00844
-8.01318 -1.67938 4.1239
-7.71398 -1.99777 4.51429
7.73169 -1.91253 4.25149
-8.16977 -1.5874 4.57966
7.5768 -1.08779 4.46154
-8.3235 -0.638159 4.3778
7.47451 -0.837147 4.05243
7.89315 -0.540098 4.48634
-8.15901 -0.285252 4.08404
8.00738 0.033577 4.34088
-8.16824 0.901433 4.24829
7.99138 0.412832 4.02951
8.04678 0.719532 4.44782
8.0161 1.13828 4.38609
-7.78727 1.82616 4.07408
7.48901 1.80609 4.02916
-7.55606 2.39038 4.30169
7.2043 2.80266 4.34421
-7.22327 3.38372 4.55257
6.83313 3.48025 4.53584
7.26279 3.31844 4.0312
-6.97457 3.95341 4.28267
-6.65464 4.46255 4.16252
6.55513 4.37067 4.40777
-5.85845 4.99081 4.28131
5.71314 5.43415 4.10123
6.30888 4.88015 4.12673
-5.41723 5.64919 4.21475
4.61874 6.13629 4.2788
5.15316 5.85167 4.55179
-4.7579 6.20966 4.27213
-4.2489 6.62092 4.32493
3.28325 6.59921 4.57183
3.87051 6.44831 4.36379
4.41876 6.41208 4.05822
-3.76784 6.95438 4.54713
-2.99732 7.40619 4.35538
1.81088 7.4443 4.03457
2.6386 7.35892 4.4057
3.00728 6.94178 4.06673
-2.47802 7.70119 4.4707
-1.60003 8.01128 4.13534
1.27928 8.11356 4.43491
2.0809 7.71057 4.57766
-1.01614 8.43559 4.30979
-0.378791 8.4177 4.21759
0.423437 8.25996 4.55465
0.781831 8.32905 4.00206
-0.417495 -8.32918 5.31345
0.0791589 -8.18725 4.90897
-1.58162 -7.51039 4.73355
-0.999436 -7.74407 4.68021
-0.433955 -7.87379 4.84274
1.6576 -8.11573 5.20752
2.70028 -7.93643 4.76182
2.33265 -7.78783 5.22728
3.13026 -7.90456 4.91928
-4.23645 -7.05831 4.78429
-2.9824 -7.12249 4.89658
-3.50025 -7.06492 5.17112
-2.43272 -7.14869 5.16849
3.53865 -7.20606 4.87131
4.34399 -6.98739 4.59996
-5.68596 -6.46035 5.09406
-4.64994 -6.80408 5.11271
-4.17637 -6.75944 5.20267
4.76881 -6.69356 5.23622
5.17341 -6.2216 5.04922
-6.45042 -5.50378 4.78654
-6.03292 -6.04341 4.94992
5.31831 -5.81502 4.60419
6.4137 -5.65833 4.7024
-6.94368 -5.01481 4.64377
-6.54035 -5.07292 5.10218
5.93206 -5.51274 4.67444
-7.32666 -4.47874 4.88459
6.95905 -4.49095 4.68456
6.93937 -4.89651 5.17303
-7.46497 -3.97082 5.16093
7.20831 -3.90029 4.79849
-7.53614 -3.35267 5.21731
7.2252 -3.30036 4.75742
-7.49512 -2.68993 4.80769
7.53935 -2.54212 4.71609
7.56742 -1.98703 4.86325
-8.15046 -1.22686 5.14487
7.76921 -1.36648 4.92048
-8.39162 -0.522352 5.03103
7.75354 -0.78779 5.02875
-8.24169 0.0591626 5.25971
-8.29354 -0.137277 4.65439
8.04207 -0.0384273 4.99489
8.3322 0.283033 5.1478
7.99823 0.71223 4.86871
-8.09818 1.08536 4.95828
7.58764 1.45268 4.86384
-8.19452 1.89354 5.23843
-7.98202 2.15421 4.74371
7.33244 1.98412 5.21721
-7.63318 2.58358 4.83014
7.25905 2.32775 4.66864
-7.61251 3.32029 4.83178
6.96835 3.39146 5.01409
-7.22818 3.86628 4.8067
-6.98066 3.74809 5.21084
6.69939 3.89476 4.8107
-6.7801 4.27549 4.73142
-6.39503 4.73001 4.87714
-6.46688 4.39614 5.31568
6.25901 4.83142 4.94407
-5.93741 5.11356 4.9235
6.10276 5.48265 4.85686
5.973 5.03311 5.28568
-5.63526 5.52894 4.76803
-4.93164 6.08898 4.891
4.31558 6.07048 4.83185
5.21594 6.10313 5.01059
5.62785 5.80191 5.02728
-4.58413 6.54572 5.05833
-3.01798 6.69956 5.23595
3.80998 6.34272 5.22713
-3.28766 7.07902 4.93815
-2.5687 7.42253 4.84607
-2.63787 7.28011 5.24927
3.09147 7.14123 5.01591
-1.58401 7.55153 5.21236
-1.31481 8.02189 4.68263
-0.0422131 8.19833 4.93549
0.607496 7.96484 5.00403
1.73702 7.99514 4.87844
2.10468 7.63491 5.25996
-0.722215 8.34078 4.69904
0.563758 -8.2105 5.2897
0.6943 -8.31825 5.8536
1.21351 -8.2872 5.59546
-1.81175 -7.7662 5.31977
-1.12425 -7.60854 5.77989
-0.840107 -7.88681 5.30098
-0.601151 -7.8692 5.82112
2.01436 -7.9728 5.72091
-3.71436 -7.04042 5.73813
-2.93725 -7.11909 5.50938
3.90653 -7.28415 5.92671
4.25754 -6.98821 5.5124
-4.97995 -6.5848 5.70441
-4.18289 -6.74494 5.74392
5.0151 -6.33383 5.81516
-6.0058 -6.05736 5.53931
-5.79403 -5.72337 5.852
5.48351 -6.14384 5.41823
5.42325 -5.92634 5.89735
6.07831 -5.56832 5.33076
-6.28422 -5.46349 5.44359
6.46219 -5.52545 5.86342
-6.75349 -4.53788 5.36118
-6.68821 -4.4442 5.84705
7.14266 -4.3542 5.86293
-7.04915 -3.663 5.79154
-6.92864 -4.13347 5.363
6.88527 -4.11611 5.28891
7.18896 -3.74257 5.78249
7.07048 -3.36911 5.336
7.46754 -2.87301 5.40681
-7.72994 -1.94381 5.4725
7.42685 -2.24353 5.59826
7.77846 -1.72458 5.50366
7.4677 -1.15722 5.39168
-8.24775 -0.830056 5.69639
-8.29087 -0.362582 5.58852
7.80833 -0.285129 5.50036
7.41323 0.936518 5.69866
7.8287 0.384366 5.68934
-8.17817 1.28997 5.57971
-8.35564 1.79452 5.90482
6.80637 1.92014 5.70822
-8.13663 2.27951 5.59199
-7.64402 2.59346 5.30362
-7.08733 2.68702 5.84467
7.14932 2.57025 5.31483
-7.02456 3.47449 5.64839
-7.30426 3.21751 5.36589
6.90708 3.31239 5.7118
-6.60509 4.0257 5.67733
6.72629 3.85964 5.38952
6.58276 4.44482 5.31353
-6.05206 4.97891 5.54637
5.7139 5.36944 5.65949
-5.76869 5.70038 5.35901
-5.11014 6.16648 5.4897
-5.157 5.73304 5.76891
5.54659 6.04875 5.51038
-4.87024 6.62346 5.59707
-4.00859 6.77629 5.25145
4.28125 6.18837 5.42884
4.57123 6.67919 5.79287
-2.27645 7.06424 5.89114
-2.09615 7.50076 5.46256
2.60032 7.28585 5.47658
3.31094 7.0361 5.57295
3.97047 6.93787 5.71525
-1.50915 7.48469 5.73273
-1.22418 8.05681 5.30561
0.274093 7.77717 5.39167
0.904405 7.92661 5.58004
1.47001 7.71818 5.44381
-0.841532 8.3719 5.37693
-0.929396 8.13927 5.85507
-0.819644 -8.14665 6.57548
0.825697 -8.32337 6.31004
1.89896 -8.1889 6.29613
0.115749 -8.08777 6.11773
2.34225 -7.78548 6.50966
2.579 -7.6403 5.99468
3.37318 -7.65955 6.04187
-3.89564 -7.1787 6.16884
-3.23343 -7.06378 6.06367
-3.3931 -7.30526 6.48584
-2.60345 -7.37219 6.11968
-1.65165 -7.52026 6.29175
3.75599 -7.28889 6.31607
-5.39792 -6.63011 6.15998
-4.3172 -6.43711 6.35816
4.48932 -6.46111 5.9681
4.3292 -6.79871 6.46019
-5.6346 -5.68069 6.45319
5.93461 -5.64586 5.92578
5.55857 -5.66758 6.45363
-6.69832 -5.17473 5.92594
-6.38098 -5.14777 6.52642
-6.18205 -5.42821 6.04805
6.8653 -4.97152 5.95128
-6.67973 -4.61425 6.36553
6.78145 -4.56709 6.33808
-7.01706 -4.1321 6.48635
-7.19956 -2.95759 6.1622
7.74183 -2.95279 6.39852
-7.37157 -2.34927 5.96879
-7.40005 -2.47415 6.56675
7.9888 -2.54019 6.03764
-7.73905 -1.97678 6.15443
7.54284 -1.74752 5.92098
7.79528 -2.07676 6.0959
-8.0651 -1.41258 5.94355
-7.94617 -1.01295 6.37853
7.43307 -1.23057 6.32799
-8.58326 -0.397186 6.03289
7.21394 -0.395557 6.48294
7.466 -0.26648 5.91309
-7.79782 0.535263 6.3839
7.49087 0.869978 6.03902
-8.01449 1.08228 6.28954
7.08958 1.37046 6.12696
-8.19888 2.29036 6.10126
-8.08374 1.67246 6.34085
6.81185 2.16641 6.44368
-7.57217 2.4011 5.98551
6.76224 2.93733 6.24862
7.251 2.81662 5.99921
-6.77466 3.83502 6.25983
6.62061 3.76977 6.47754
6.96465 3.94523 5.90605
-6.5859 4.44298 6.32989
6.33458 4.3837 6.43793
-5.96934 4.95536 6.19857
-5.4459 5.39792 6.24763
6.13324 5.0816 6.07414
5.73024 5.80356 6.1107
-5.02884 6.29261 6.11256
-4.27853 6.6849 5.91008
-3.6914 6.5311 6.15417
-3.0332 6.45578 6.22897
3.58838 6.87391 5.97685
5.05382 6.24718 6.06439
-2.66539 7.17603 6.49198
-1.93654 7.49497 6.1754
2.27342 7.55571 6.12994
1.82588 7.52776 6.32726
2.66322 7.16026 6.21135
3.27264 6.88355 6.45792
-1.5122 7.75373 6.54535
-0.755829 7.73571 6.53124
0.0433967 7.66376 6.35544
0.668168 7.61899 6.33635
1.32666 7.76783 6.04528
-0.353985 -8.46083 6.95766
-0.926277 -8.32646 7.14226
0.0416381 -8.38784 7.22494
0.442914 -8.29915 6.76198
1.06966 -8.43924 6.71056
1.95508 -8.54196 6.76498
-2.47079 -7.66921 7.12132
-1.88625 -7.65487 6.82336
-1.30661 -7.82019 6.63328
2.24 -8.03011 7.00519
2.93088 -7.80565 7.18156
-2.97334 -7.31686 6.95907
3.30977 -7.45076 6.71833
-4.57697 -6.30029 6.6991
-3.91541 -6.7133 6.8067
4.45428 -6.51853 7.03965
-5.53547 -5.92197 7.07281
4.95735 -6.05543 6.86995
-5.99524 -5.29493 7.09353
5.88422 -5.31337 6.71098
6.1048 -5.2878 7.09415
-6.63358 -4.61243 6.96982
6.44246 -4.86207 6.73054
6.38294 -4.45417 7.07172
-6.85229 -3.94044 7.03032
6.89076 -3.85457 6.94107
-6.97766 -2.97095 6.7769
7.33342 -3.49812 6.61202
7.12032 -3.26161 7.05297
7.63875 -2.94912 6.86875
7.5605 -2.40067 6.65256
-7.8312 -2.0471 6.81283
-7.98592 -1.56755 6.5694
-8.11989 -1.48753 6.99121
-8.07081 -1.02876 6.96168
-7.97213 -0.513627 6.76048
7.29938 -0.637556 7.01609
7.49807 0.555121 6.82068
-7.75542 1.44446 6.87254
7.32895 1.13055 6.60472
7.24759 1.2476 7.15388
-7.80905 1.94797 7.13584
7.0469 1.79934 6.97571
-7.57111 2.43473 6.60111
-7.03086 2.84738 7.03003
-7.32805 2.46269 7.19711
6.85478 2.81272 6.88258
-7.17586 3.13519 6.836
-6.42846 4.23526 6.71332
-6.37638 3.70769 6.99316
6.2224 4.51639 7.05918
-5.87616 5.15069 6.75947
5.75675 5.34627 6.61094
6.07734 4.97604 7.16973
4.60872 6.19232 6.66859
5.54644 6.14013 7.03847
-5.17689 6.38236 6.71017
-4.5313 6.45923 7.12064
-4.13622 6.52876 6.63527
-3.53663 6.76184 6.80029
3.30337 6.8254 7.12781
4.1786 6.6351 6.87578
-2.77102 7.4702 7.1304
-2.02163 7.3661 6.78169
0.92541 7.39131 7.09115
1.52648 7.41026 7.16661
2.64805 7.34977 7.25637
3.64828 6.99643 6.69969
-1.75092 7.72634 6.94603
-0.691894 7.8789 7.13301
-0.215331 7.88945 6.71598
0.311377 7.55615 6.96866
-0.0773654 7.8576 7.17316
2.28553 7.62884 6.87409
-1.25654 8.221 6.91539
1.346 -8.33365 7.24336
-1.49161 -7.98142 7.26964
0.210968 -8.08229 7.53711
0.878709 -7.85526 7.67103
1.60693 -8.01007 7.66845
2.58234 -7.96273 7.65961
3.16279 -7.57411 7.69707
-1.94826 -7.48989 7.46379
3.3881 -7.23395 7.27503
3.6705 -7.00355 7.71597
4.04469 -7.11614 7.22289
-4.29911 -6.22538 7.33985
-3.59762 -6.6555 7.43207
-3.24331 -6.78954 7.52035
4.24344 -6.8119 7.56513
4.78321 -6.44018 7.56214
5.34704 -6.29078 7.67732
-5.26864 -5.98534 7.69074
-4.62363 -6.17202 7.78258
5.37042 -5.75555 7.29576
-5.52095 -5.52799 7.48311
5.79796 -5.53667 7.56828
6.43132 -4.95812 7.49566
6.6619 -5.45631 7.80413
-6.17284 -4.70967 7.49549
-6.57799 -4.3993 7.55673
6.19301 -4.39055 7.66902
6.22033 -3.92737 7.63882
6.79809 -3.39118 7.73717
-7.19911 -2.92545 7.53129
-7.15996 -2.30826 7.65767
7.57494 -2.58199 7.33676
-7.60093 -1.65555 7.74079
7.3924 -2.03645 7.35036
7.36776 -1.70864 7.82269
7.21757 -1.44338 7.2824
-8.22153 -0.719291 7.51567
7.34106 -0.820085 7.57027
-8.15915 -0.136066 7.29226
-8.13218 -0.019227 7.82164
7.60038 -0.190543 7.28535
7.7632 0.344065 7.59882
-8.08338 0.406307 7.38443
7.4088 0.86281 7.38019
7.7603 0.953066 7.78061
-7.94413 1.10579 7.39873
-8.00646 1.56221 7.65244
-7.39297 1.95295 7.73857
7.31098 1.94641 7.48681
-6.75405 2.6967 7.54873
7.02854 2.48357 7.4768
-6.67192 3.18549 7.36971
6.59682 3.11043 7.26266
6.74232 3.47118 7.79166
-6.5298 3.7083 7.72178
-6.1501 4.11556 7.56691
-6.15974 4.46301 7.79923
-6.11144 4.71059 7.22437
-5.29301 5.26039 7.72658
5.73572 5.22611 7.83755
5.60088 5.64801 7.3377
-5.04582 6.63749 7.35943
-5.10254 6.17616 7.44189
-4.65705 6.53898 7.74854
-3.96558 6.86663 7.37155
3.98956 6.24821 7.68932
4.70003 6.46566 7.24649
5.23363 6.33841 7.32547
5.59153 6.32042 7.72417
-3.73115 7.2607 7.86261
-3.35633 7.0168 7.27495
-3.20365 7.37675 7.63496
-2.26465 7.36503 7.41093
2.84652 6.98416 7.59122
-2.71499 7.6025 7.79667
-1.69414 7.6347 7.61801
-1.30205 7.74502 7.71145
-0.646708 7.81343 7.60313
0.923068 7.89663 7.55601
1.99786 7.50366 7.63764
-0.193659 -8.13958 8.37274
-0.77791 -8.20252 8.52435
-0.335407 -7.98396 7.86052
0.37785 -7.96088 8.22922
1.00866 -7.95911 8.2867
1.78188 -7.76331 8.28654
2.60141 -7.6542 8.44649
-2.69246 -7.03018 8.12787
-2.44578 -7.24119 7.97027
-1.95029 -7.49203 8.41489
-1.41505 -7.4492 8.01359
-4.3664 -6.76097 8.07134
-3.74578 -6.67502 7.95248
3.99481 -6.787 8.07272
4.61046 -6.38135 7.95436
-4.88391 -6.09304 8.23325
5.75527 -6.15994 8.36424
-5.91934 -5.24038 8.5327
-5.47001 -5.52135 8.35137
6.29281 -5.43284 8.05894
-6.34501 -4.71044 8.54348
-6.022 -4.8576 8.05016
-6.7556 -4.25439 8.17846
-6.47599 -3.83498 7.99353
6.87955 -3.7974 8.35917
-7.19215 -2.96252 8.1939
-6.68447 -3.23714 8.05265
7.27544 -3.15169 8.1455
-7.14516 -2.37834 7.91573
7.67782 -2.29321 8.03953
-7.42648 -1.9241 8.28336
7.7056 -1.92173 8.35186
-7.73248 -1.43866 8.08774
7.46802 -1.07775 7.96634
8.03717 -1.16605 8.54033
-8.08028 -0.732321 8.1461
7.75825 -0.726131 8.12128
-8.15107 -0.304323 8.41968
7.52284 -0.200122 7.91911
-7.7376 0.412246 8.09617
7.18345 1.00511 8.0362
-7.91426 1.02066 7.97739
-7.56927 1.32217 8.46627
-7.07761 1.78139 8.27573
7.39143 2.12471 8.06353
-6.32723 2.59529 8.17763
7.07335 2.51494 8.51251
-6.27701 3.1783 7.93286
-6.40943 4.09299 8.22901
6.68702 3.6247 8.5252
6.32706 4.05719 8.21613
5.8559 4.44687 7.98645
-5.83758 5.06328 7.97392
-5.48011 5.37102 8.30801
5.44995 5.71818 7.89532
5.50481 5.85492 8.44137
-3.55009 6.84202 8.35265
3.54074 6.48828 8.16145
3.161 6.7994 8.33437
4.08662 6.5242 8.20543
5.18513 6.33126 7.98987
-4.1664 6.84888 7.97715
-3.45332 7.35926 8.27558
-2.30266 7.45819 8.03904
-1.42917 7.51235 8.22018
2.31189 7.46618 8.23268
2.49361 7.29414 7.93286
2.8457 7.19458 8.44232
-2.92147 7.73517 8.46802
-0.879163 7.86064 8.27955
-0.131963 7.68031 7.94247
0.132824 7.55715 8.45451
0.915852 7.72074 8.17992
1.306 7.92895 8.06403
2.39692 -8.13278 8.74834
-1.93825 -7.68462 9.12726
-1.38892 -7.90056 8.74954
0.836032 -8.09783 8.82016
1.67449 -7.80366 9.098
-3.66821 -6.91393 8.72778
-3.15587 -7.39031 8.63774
-2.51775 -7.52292 8.61453
3.21466 -7.54622 9.12157
3.93305 -6.93972 8.67571
3.8317 -7.48888 8.73361
4.24699 -7.32476 9.22321
-4.29411 -6.73851 8.75105
-4.89492 -6.28168 9.09759
4.27113 -6.75677 8.96206
5.00813 -6.58855 8.58883
5.30023 -6.52597 8.98213
5.54439 -6.04986 8.81057
5.9922 -5.59037 8.6075
-5.62377 -5.47586 8.82326
-6.10638 -5.0559 8.98277
6.81993 -4.4768 8.85797
-7.0451 -3.68753 9.22579
-6.62879 -4.2272 8.7531
-6.66817 -3.77081 8.7127
7.1196 -4.16986 8.59021
7.06067 -3.81959 9.10101
-7.14254 -3.23351 8.7955
6.98041 -3.38548 8.56252
-7.36537 -2.31994 8.77599
7.20432 -2.97442 8.7941
7.63336 -2.73571 8.54643
7.47609 -2.7139 9.16171
7.99693 -2.56314 9.13562
-7.73997 -1.82489 8.82896
7.98299 -2.24508 8.78321
8.09793 -1.75985 8.75577
-7.89131 -1.04694 8.6655
7.8366 -1.45188 9.11349
-8.05171 -0.413423 9.04325
-7.85133 0.0202058 8.98707
7.82322 0.311797 8.78206
7.78504 -0.320462 8.7114
-7.69713 0.465022 8.62117
7.13562 0.88017 8.6189
-7.02832 1.59068 8.891
-6.6669 2.18184 8.59341
7.11795 1.79503 8.75781
7.31341 2.2108 9.01788
7.64922 2.16819 8.63129
-6.80851 2.6222 8.93253
-6.30258 3.04806 8.68799
7.04872 3.08027 8.63915
7.04448 3.32115 9.09118
-6.42659 3.66792 8.66805
-6.13949 3.91395 9.20316
6.22453 4.21384 9.00495
6.53355 3.68982 9.13944
-6.18799 4.23122 8.78897
-5.77141 4.86385 8.55782
-5.96901 4.73012 9.20325
5.63128 4.66415 8.78659
-5.56739 5.17652 9.01778
5.5781 5.29587 8.71571
-5.14096 5.80665 8.87619
-4.37535 6.06473 8.6933
-3.88619 6.51528 8.76598
-3.20803 6.8099 8.89335
4.40345 6.8196 8.60973
4.80742 6.19155 9.05731
-2.85271 7.17504 8.65663
-2.632 6.90969 9.02168
-2.05874 7.09156 9.13876
-1.00958 7.5143 8.69521
-1.41706 7.30716 9.14309
2.62878 7.2539 9.11852
3.47331 7.17525 8.63417
4.00221 7.02905 9.00711
4.56626 7.12273 9.12035
-2.31983 7.69603 8.55373
-0.348143 7.56759 8.65106
-0.445248 7.92216 9.15257
0.490053 7.63329 8.89556
1.57655 7.77038 8.57263
1.09903 7.63555 8.78024
-1.17455 -7.7954 9.2321
-1.32345 -7.91373 9.8068
-0.358046 -7.99275 9.49102
0.159638 -7.93042 9.82332
1.15987 -8.10092 9.32394
1.53717 -8.04762 9.77702
2.31552 -7.82683 9.67093
2.75058 -7.88895 9.27203
3.20601 -7.94948 9.71743
3.62876 -7.87136 9.35058
-3.29698 -7.0841 9.23869
-2.8024 -7.31168 9.65559
4.40111 -7.29396 9.76981
-4.34773 -6.48698 9.33737
-3.84867 -6.86452 9.71516
4.73941 -6.51301 9.59207
5.42944 -6.49458 9.61046
-5.19037 -5.88214 9.48567
5.97962 -5.63953 9.77794
5.78418 -6.20055 9.59503
-5.74628 -5.05321 9.34311
6.09077 -5.31828 9.32978
6.64626 -5.12996 9.21177
6.55445 -5.30751 9.82916
6.98649 -4.95011 9.3193
-6.23989 -4.62693 9.64064
-6.6384 -4.17013 9.40744
7.08893 -3.80094 9.82182
-7.2044 -3.36548 9.62771
-7.46469 -2.99975 9.83221
7.22018 -3.35548 9.45212
7.60848 -2.98129 9.78807
-7.42446 -2.93156 9.32523
7.61178 -2.41126 9.6716
-7.44313 -1.96777 9.49184
7.39825 -1.77561 9.7796
7.65498 -2.06311 9.53009
-7.91853 -1.60725 9.30954
-7.99416 -1.22494 9.81725
-8.17367 -0.965446 9.22263
-8.33387 -0.711013 9.8105
-7.88497 -0.435207 9.50945
7.80836 -0.706278 9.38388
-7.33109 -0.0882051 9.72434
7.83264 -0.00390796 9.35698
-7.47189 0.523366 9.18531
-7.2239 0.772364 9.67042
7.72231 0.591453 9.46227
-6.81593 1.54209 9.56464
7.18926 1.31765 9.23122
7.45815 1.15863 9.71652
-6.86384 2.19606 9.55011
-6.70394 2.05636 9.85213
7.65039 1.8081 9.38866
-6.61024 2.73023 9.65582
6.8837 2.60307 9.48933
-6.46986 3.34118 9.18223
6.66723 3.19333 9.41456
-6.43119 3.80434 9.71885
-6.01411 4.43211 9.72345
5.46802 4.93263 9.19745
5.60148 4.4451 9.57028
-5.48207 4.96949 9.58665
5.50988 5.03842 9.82992
5.08045 5.43866 9.58114