units real
dimension 3
boundary p p p
neighbor 0.3 bin
neigh_modify every 1 check yes

atom_style full
bond_style harmonic
angle_style cosine/squared
special_bonds lj/coul 0 1 1


region     box      block 0 120 0 120 0 120
create_box 4 box bond/types 1 angle/types 1 	extra/special/per/atom 3 	extra/bond/per/atom 2 	extra/angle/per/atom 2
Created orthogonal box = (0 0 0) to (120 120 120)
  2 by 2 by 2 MPI processor grid


molecule 1 sds.txt
Read molecule template 1:
# SDS
  1 molecules
  0 fragments
  4 atoms with max type 2
  3 bonds with max type 1
  2 angles with max type 1
  0 dihedrals with max type 0
  0 impropers with max type 0
# 1 - Qa (SDS-H)
# 2 - C1
# 3 - Qd (Na)
# 4 - W

create_atoms     0 random 1000 1234345 box mol 1 1234563
Created 4000 atoms
  using lattice units in orthogonal box = (0 0 0) to (120 120 120)
  create_atoms CPU = 0.002 seconds
create_atoms     3 random 1000 12334 box
Created 1000 atoms
  using lattice units in orthogonal box = (0 0 0) to (120 120 120)
  create_atoms CPU = 0.000 seconds
# create_atoms     4 random 11000 12333 box
create_atoms     4 random 10675 12333 box
Created 10675 atoms
  using lattice units in orthogonal box = (0 0 0) to (120 120 120)
  create_atoms CPU = 0.000 seconds

mass 1 96
mass 2 56
mass 3 23
mass 4 72

pair_style hybrid/overlay lj/gromacs 9 12 coul/long 12

kspace_style pppm 1.0e-5
kspace_modify order 4

dielectric 80

set type 1 charge  -1
Setting atom values ...
  1000 settings made for charge
set type 3 charge  1
Setting atom values ...
  1000 settings made for charge
pair_coeff 1*3 1*3 coul/long

# In kcal/mol and Angstrom
pair_coeff 1 1 lj/gromacs  1.19 4.7
pair_coeff 1 2 lj/gromacs  0.48 6.2
pair_coeff 1 3 lj/gromacs  1.33 4.7
pair_coeff 1 4 lj/gromacs  1.33 4.7
pair_coeff 2 2 lj/gromacs  0.84 4.7
pair_coeff 2 3 lj/gromacs  0.48 6.2
pair_coeff 2 4 lj/gromacs  0.48 4.7
pair_coeff 3 3 lj/gromacs  1.19 4.7
pair_coeff 3 4 lj/gromacs  1.33 4.7
pair_coeff 4 4 lj/gromacs  1.19 4.7

bond_coeff 1 2.98 4.7
angle_coeff 1 5.97 180

write_data initial.data
System init for write_data ...
PPPM initialization ...
  using 12-bit tables for long-range coulomb (src/kspace.cpp:342)
  G vector (1/distance) = 0.1258738
  grid = 15 15 15
  stencil order = 4
  estimated absolute RMS force accuracy = 0.0042059989
  estimated relative force accuracy = 1.2666241e-05
  using double precision KISS FFT
  3d grid and FFT values/proc = 1728 512
Generated 0 of 6 mixed pair_coeff terms from geometric mixing rule
Neighbor list info ...
  update: every = 1 steps, delay = 0 steps, check = yes
  max neighbors/atom: 2000, page size: 100000
  master list distance cutoff = 12.3
  ghost atom cutoff = 12.3
  binsize = 6.15, bins = 20 20 20
  2 neighbor lists, perpetual/occasional/extra = 2 0 0
  (1) pair lj/gromacs, perpetual
      attributes: half, newton on
      pair build: half/bin/newton
      stencil: half/bin/3d
      bin: standard
  (2) pair coul/long, perpetual, skip from (1)
      attributes: half, newton on
      pair build: skip
      stencil: none
      bin: none
dump        mydump  all atom 5000 sds.lammpstrj

velocity all create 400 600 dist gaussian
velocity all zero linear

min_style cg
minimize 0 0 10000 100000
PPPM initialization ...
  using 12-bit tables for long-range coulomb (src/kspace.cpp:342)
  G vector (1/distance) = 0.1258738
  grid = 15 15 15
  stencil order = 4
  estimated absolute RMS force accuracy = 0.0042059989
  estimated relative force accuracy = 1.2666241e-05
  using double precision KISS FFT
  3d grid and FFT values/proc = 1728 512
Generated 0 of 6 mixed pair_coeff terms from geometric mixing rule
Per MPI rank memory allocation (min/avg/max) = 9.442 | 9.456 | 9.461 Mbytes
   Step          Temp          E_pair         E_mol          TotEng         Press     
         0   400            8.2561144e+16  1038.2435      8.2561144e+16  1.3104368e+16
      3702   400           -100879.7       642.19674     -81549.017     -838.23406    
Loop time of 17.812 on 8 procs for 3702 steps with 15675 atoms

99.9% CPU use with 8 MPI tasks x 1 OpenMP threads

Minimization stats:
  Stopping criterion = linesearch alpha is zero
  Energy initial, next-to-last, final = 
    8.25611437366434e+16  -100237.504104193  -100237.504104193
  Force two-norm initial, final = 4.209122e+18 0.89403829
  Force max component initial, final = 2.2898824e+18 0.4402847
  Final line search alpha, max atom move = 8.7109068e-09 3.835279e-09
  Iterations, force evaluations = 3702 5991

MPI task timing breakdown:
Section |  min time  |  avg time  |  max time  |%varavg| %total
---------------------------------------------------------------
Pair    | 8.3697     | 8.5611     | 8.8474     |   5.4 | 48.06
Bond    | 0.085535   | 0.094281   | 0.10244    |   1.6 |  0.53
Kspace  | 3.34       | 3.6304     | 3.8197     |   8.3 | 20.38
Neigh   | 4.109      | 4.1125     | 4.1167     |   0.1 | 23.09
Comm    | 0.82477    | 0.83097    | 0.83658    |   0.4 |  4.67
Output  | 0          | 0          | 0          |   0.0 |  0.00
Modify  | 0          | 0          | 0          |   0.0 |  0.00
Other   |            | 0.5828     |            |       |  3.27

Nlocal:        1959.38 ave        1981 max        1946 min
Histogram: 1 1 1 1 3 0 0 0 0 1
Nghost:         3539.5 ave        3552 max        3533 min
Histogram: 3 1 1 0 1 0 0 0 1 1
Neighs:          65451 ave       66969 max       64174 min
Histogram: 2 1 1 0 0 0 2 0 1 1

Total # of neighbors = 523608
Ave neighs/atom = 33.404019
Ave special neighs/atom = 0.76555024
Neighbor list builds = 1568
Dangerous builds = 8
write_data initial.data
System init for write_data ...
PPPM initialization ...
  using 12-bit tables for long-range coulomb (src/kspace.cpp:342)
  G vector (1/distance) = 0.1258738
  grid = 15 15 15
  stencil order = 4
  estimated absolute RMS force accuracy = 0.0042059989
  estimated relative force accuracy = 1.2666241e-05
  using double precision KISS FFT
  3d grid and FFT values/proc = 1728 512
Generated 0 of 6 mixed pair_coeff terms from geometric mixing rule

thermo              100

timestep 20

fix mom all momentum 1000 linear 1 1 1

fix fxnpt all npt temp 400.0 400.0 $(100*dt) tchain 1 iso 1 1 $(1000*dt) drag 1 mtk yes
fix fxnpt all npt temp 400.0 400.0 2000 tchain 1 iso 1 1 $(1000*dt) drag 1 mtk yes
fix fxnpt all npt temp 400.0 400.0 2000 tchain 1 iso 1 1 20000 drag 1 mtk yes
run 200000
PPPM initialization ...
  using 12-bit tables for long-range coulomb (src/kspace.cpp:342)
  G vector (1/distance) = 0.1258738
  grid = 15 15 15
  stencil order = 4
  estimated absolute RMS force accuracy = 0.0042059989
  estimated relative force accuracy = 1.2666241e-05
  using double precision KISS FFT
  3d grid and FFT values/proc = 1728 512
Generated 0 of 6 mixed pair_coeff terms from geometric mixing rule
Per MPI rank memory allocation (min/avg/max) = 9.394 | 9.408 | 9.413 Mbytes
   Step          Temp          E_pair         E_mol          TotEng         Press          Volume    
      3702   400           -100879.7       642.19674     -81549.017     -838.23406      1728000      
      3800   220.89387     -90955.969      1516.1085     -79119.43       443.78009      1752805.1    
      3900   258.12468     -88433.367      1601.2557     -74772.212      454.11464      1785746      
      4000   295.90998     -86102.334      1749.1728     -70527.887      484.61007      1819488.2    
      4100   321.41458     -83803.713      1816.9832     -66969.85       501.79079      1853292.6    
      4200   340.09831     -81925.677      1879.5557     -64156.315      468.62532      1886915      
      4300   350.60155     -80293.68       1982.2318     -61930.917      428.44425      1919883.1    
      4400   361.77066     -79067.866      2039.9161     -60125.585      334.26278      1950620.9    
      4500   370.76202     -77937.462      2012.4231     -58602.586      279.68643      1979057.1    
      4600   377.48811     -77049.011      2059.1647     -57353.142      219.77428      2005548.2    
      4700   382.94694     -76190.59       1971.4287     -56327.415      195.22214      2029848.2    
      4800   381.16067     -75381.914      2090.4009     -55483.223      154.87286      2052583.7    
      4900   385.85895     -74802.113      2038.8575     -54735.456      117.18384      2072867.7    
      5000   388.17441     -74335.677      2105.5915     -54094.105      85.025128      2090495.8    
      5100   391.59137     -73927.009      2060.0757     -53571.308      47.972031      2106490.5    
      5200   387.85775     -73383.282      2120.7189     -53141.377      46.959902      2120376.1    
      5300   392.97376     -73196.497      2081.9548     -52754.33       51.656109      2131483.5    
      5400   392.69327     -72918.682      2147.9161     -52423.658      10.996035      2140899.7    
      5500   397.48885     -72785.772      2063.6698     -52150.939      8.0814798      2148565.4    
      5600   396.66722     -72529.399      2043.7389     -51952.885      18.249244      2155209.1    
      5700   398.7975      -72505.878      2060.1821     -51813.391     -2.9977777      2160703.4    
      5800   397.70616     -72408.617      2089.1203     -51738.181      23.205818      2164234.3    
      5900   402.09496     -72586.47       2093.8742     -51706.23      -2.5137889      2165932.4    
      6000   403.03131     -72631.006      2078.629      -51722.264     -6.5664445      2167432.8    
      6100   400.21038     -72503.886      2068.0424     -51737.528     -19.075082      2169147.2    
      6200   401.2021      -72633.652      2111.3781     -51777.623      7.7428626      2168552.7    
      6300   400.18879     -72608.585      2071.53       -51839.748      0.55723466     2167424      
      6400   402.99711     -72830.128      2139.1686     -51862.444     -20.185461      2165674.2    
      6500   401.89779     -72873.953      2165.9899     -51930.809      9.5880603      2163128.7    
      6600   404.9985      -73104.902      2114.2647     -52068.615     -20.115782      2161944.6    
      6700   404.34715     -73142.223      2050.1408     -52200.491     -29.240275      2160658.8    
      6800   397.79047     -72991.672      2061.5653     -52344.852      31.299289      2158925.2    
      6900   401.6645      -73284.497      2051.827      -52466.416      11.773453      2159711.8    
      7000   401.64785     -73332.968      2011.756      -52555.735     -1.0938932      2161299.8    
      7100   401.83121     -73409.929      1996.6329     -52639.253      20.947933      2161054.5    
      7200   401.09813     -73432.56       1994.48       -52698.288      19.658115      2160734.6    
      7300   402.04329     -73540.011      1983.9083     -52772.151      1.8702326      2160083.1    
      7400   400.25104     -73535.245      2003.6623     -52831.367     -12.143832      2158757.7    
      7500   400.92009     -73622.977      1974.3358     -52917.167      16.707763      2155948.8    
      7600   401.33756     -73712.383      1961.1896     -53000.214      9.7569809      2152928.9    
      7700   403.3102      -73969.434      2022.0233     -53104.267      2.7993195      2151371.2    
      7800   398.61872     -73882.238      2036.617      -53221.67       9.3795415      2152012.3    
      7900   402.03037     -74130.152      2072.2833     -53274.521     -36.113332      2152117.2    
      8000   402.74982     -74111.608      1982.8362     -53311.809      10.609616      2149347.9    
      8100   402.38767     -74189.993      1994.2905     -53395.661      14.436965      2146887.2    
      8200   400.45861     -74186.116      2022.5527     -53453.649     -3.7679476      2147464      
      8300   396.45573     -74111.071      2091.3783     -53496.799      27.022101      2148635      
      8400   399.32697     -74218.196      2073.822      -53487.332     -24.850952      2149482      
      8500   400.34304     -74173.15       1994.5564     -53474.08       8.8145287      2148807.8    
      8600   402.20971     -74311.748      2002.5401     -53517.481      15.309804      2147700.9    
      8700   398.91649     -74190.763      1990.4788     -53562.42      -1.353528       2147452.4    
      8800   401.92861     -74389.736      2006.9764     -53604.166     -5.3160863      2146349      
      8900   402.27829     -74447.875      1987.4249     -53665.519     -20.858098      2144399.9    
      9000   403.75526     -74634.726      2004.6856     -53766.103     -5.5099454      2141184      
      9100   400.3246      -74651.279      2066.351      -53881.276      7.3605292      2139566.8    
      9200   401.40046     -74772.728      2073.5738     -53945.236     -11.570386      2139100.6    
      9300   398.61688     -74663.535      2034.5379     -54005.132      12.641662      2138175.4    
      9400   402.6124      -74826.308      2019.429      -53996.338     -15.818389      2138145      
      9500   398.75046     -74663.505      1995.3771     -54038.021      15.34531       2138490.8    
      9600   400.52953     -74753.198      1968.0865     -54071.885      4.5349595      2139829.7    
      9700   403.34413     -74892.724      1977.5329     -54070.463     -9.8199659      2140555.3    
      9800   398.38139     -74620.304      1905.8458     -54101.595      21.219606      2140862.6    
      9900   401.27037     -74875.217      1973.9499     -54153.427      3.6103593      2140483.4    
     10000   402.59007     -74960.334      1944.9972     -54205.839     -29.920387      2140044.4    
     10100   398.94266     -74923.912      2052.5009     -54232.325      20.770334      2138862.2    
     10200   400.81812     -75011.162      2036.9484     -54247.503     -18.949533      2138997.5    
     10300   400.12245     -74999.658      2029.1357     -54276.315     -2.1792949      2138153.7    
     10400   400.12336     -75062.249      2055.2452     -54312.754      6.4982167      2138251.4    
     10500   402.96361     -75163.511      1978.2292     -54358.332      1.4823718      2138905.4    
     10600   399.20067     -75024.447      2019.9478     -54353.358     -13.539974      2141135.2    
     10700   397.60158     -74908.134      2009.5443     -54322.16      -10.805187      2142077.1    
     10800   400.26493     -75049.215      2010.0955     -54338.255      3.3629296      2140937.1    
     10900   401.11722     -75114.841      1983.6445     -54390.512      18.357297      2138411.2    
     11000   402.6436      -75310.494      2015.7251     -54482.77      -6.8612722      2135688      
     11100   400.24241     -75296.442      2030.1955     -54566.434      23.674474      2133398.9    
     11200   404.11006     -75487.621      1988.2373     -54618.87      -7.3261932      2132446      
     11300   402.32772     -75527.652      2043.5156     -54686.896     -3.6548083      2132502.2    
     11400   398.32405     -75300.219      1957.0029     -54733.032      13.990859      2133041.3    
     11500   399.60615     -75381.968      1998.9126     -54712.969     -27.561964      2133189.4    
     11600   404.1776      -75573.39       1989.5165     -54700.204      24.370573      2131911.6    
     11700   400.49331     -75494.967      2020.9267     -54762.505      10.766072      2132573.6    
     11800   399.57107     -75406.007      1978.5714     -54758.989     -3.5529616      2133821      
     11900   399.53962     -75405.983      2005.0857     -54733.92      -14.307454      2133387.7    
     12000   400.58052     -75480.318      2028.2829     -54736.426      17.01981       2132245.7    
     12100   397.00245     -75363.963      2054.516      -54761.009      35.604973      2132170.2    
     12200   401.61671     -75517.412      1966.6452     -54786.746      15.822234      2133066.2    
     12300   399.06474     -75478.299      2027.346      -54806.162     -14.192366      2133629.2    
     12400   403.15091     -75616.135      1994.0505     -54786.384     -13.046118      2131816.5    
     12500   404.06395     -75659.421      1976.1086     -54804.953      6.9708478      2129927.7    
     12600   400.92484     -75608.712      1995.7312     -54881.284      5.5908451      2130249.9    
     12700   401.78263     -75739.469      2000.8071     -54966.888     -14.889633      2130619.5    
     12800   399.87922     -75658.631      1971.8206     -55003.967      11.233472      2131478.8    
     12900   400.22874     -75739.538      2042.7278     -54997.637     -13.588861      2132971.7    
     13000   401.15762     -75724.429      1992.1118     -54989.745      13.053252      2131962.6    
     13100   400.55611     -75736.989      2027.9891     -54994.532      23.830855      2131881.4    
     13200   398.68172     -75648.362      2013.1983     -55008.268     -15.816447      2132923.6    
     13300   403.15542     -75790.454      1954.6384     -54999.904     -29.027721      2132655.9    
     13400   400.12022     -75771.174      2072.9186     -55004.152     -21.98383       2130970      
     13500   398.54333     -75685.506      2039.2346     -55025.842      18.465664      2128315      
     13600   401.70158     -75825.883      1990.3848     -55067.511      23.137631      2127523.6    
     13700   400.98956     -75780.333      1954.6825     -55090.931     -5.4518404      2129364.5    
     13800   399.17874     -75828.406      2085.1948     -55093.095     -19.257154      2132252.4    
     13900   401.45433     -75794.866      1949.2662     -55089.165      5.8191324      2133414.9    
     14000   400.47488     -75785.301      1981.1914     -55093.435     -12.001439      2131653.5    
     14100   400.66782     -75822.223      1987.9154     -55114.62       25.422651      2127668.4    
     14200   397.71701     -75699.31       1974.8254     -55142.662      41.468782      2126351.5    
     14300   400.81259     -75908.767      1990.0377     -55192.278      3.731874       2125923.4    
     14400   401.10564     -75981.299      1992.6852     -55248.47       1.4869146      2125617      
     14500   400.29499     -75988.977      2020.7445     -55265.963     -7.1969416      2126942      
     14600   402.29454     -75985.973      1952.0697     -55238.213     -15.376003      2128794.8    
     14700   401.53791     -76048.039      2053.9607     -55233.739     -44.276053      2129404.7    
     14800   402.63879     -76041.327      1989.868      -55239.685     -20.931605      2127896.4    
     14900   403.41497     -76074.859      1985.3565     -55241.465     -14.396758      2126125      
     15000   402.69263     -76075.46       1985.7108     -55275.459      28.183303      2125300.7    
     15100   397.22322     -75942.041      2058.8719     -55324.417     -0.64104159     2126434.4    
     15200   397.17394     -75968.985      2070.964      -55341.572      24.855997      2125947.6    
     15300   396.5289      -75868.483      2032.4085     -55309.762      27.487504      2126518.7    
     15400   400.43216     -75975.346      1942.1406     -55324.528      4.0690855      2126262.3    
     15500   401.39531     -76031.413      1919.79       -55357.945     -1.8810655      2125066.3    
     15600   397.6435      -76025.715      2029.6812     -55417.645      14.770971      2124260      
     15700   399.02072     -76080.273      2044.6934     -55392.846     -6.9203536      2124037.5    
     15800   398.89809     -75968.162      1942.0642     -55389.094      29.689245      2123740.4    
     15900   399.25236     -76010.974      1981.1007     -55376.317      45.933377      2124191.8    
     16000   398.43949     -75996.122      1953.741      -55426.803      13.048392      2126853.8    
     16100   397.3744      -76019.212      2025.8273     -55427.569     -6.0883675      2130123.9    
     16200   398.91787     -75972.675      1960.5521     -55374.195     -4.2069421      2131828      
     16300   398.74898     -75941.648      1997.1358     -55314.475     -20.623555      2130737      
     16400   401.03689     -76012.824      2004.3071     -55271.586      5.5220616      2127132.2    
     16500   399.61337     -75959.447      1981.2893     -55307.735      31.404973      2124282.2    
     16600   400.47203     -76084.362      1996.6207     -55377.201      16.416046      2122146.1    
     16700   401.04283     -76191.025      2000.1214     -55453.695      29.083014      2121784.4    
     16800   401.16327     -76216.546      1977.4645     -55496.246     -18.485667      2123559.5    
     16900   402.66125     -76276.041      1966.2516     -55496.966     -0.98747584     2124917.9    
     17000   399.15457     -76144.877      1950.9669     -55544.923      12.026002      2126879.5    
     17100   400.68066     -76253.133      1970.6085     -55562.237     -24.521641      2127664.6    
     17200   400.61376     -76209.317      1962.3328     -55529.821     -15.074213      2126690.3    
     17300   399.39234     -76193.905      2027.773      -55506.036     -1.3138783      2124931.8    
     17400   399.846       -76142.395      1954.2295     -55506.874      13.688874      2123541.2    
     17500   400.90898     -76209.74       1939.1604     -55539.624      41.937731      2122715.9    
     17600   401.43624     -76305.978      1993.466      -55556.922     -2.3598961      2123694.5    
     17700   399.38476     -76151.476      1908.5208     -55583.214      20.457229      2123245.7    
     17800   400.42419     -76254.849      1951.8317     -55594.712     -12.829182      2122701      
     17900   400.46061     -76298.127      1999.7379     -55588.382      6.4706147      2121631.2    
     18000   396.78905     -76220.556      2068.0708     -55614.018      24.654582      2120780.9    
     18100   402.05924     -76423.041      1995.9276     -55642.417      5.8538423      2120528      
     18200   399.14488     -76356.847      2028.0231     -55680.289      7.3269792      2121693.1    
     18300   397.13016     -76238.924      2002.6065     -55681.913     -0.20606068     2124336.8    
     18400   399.75109     -76350.489      2022.0255     -55651.606     -33.993268      2124792.5    
     18500   399.33317     -76201.993      1951.6515     -55593.01       6.4731365      2122202.2    
     18600   400.94243     -76297.152      1956.7728     -55607.861      19.335738      2119826.6    
     18700   400.72441     -76350.341      1971.5501     -55656.459      12.633048      2119179.3    
     18800   399.65918     -76313.779      1968.838      -55672.378      32.653785      2120624      
     18900   399.88414     -76401.518      2003.7571     -55714.687     -26.783405      2122705.2    
     19000   402.66278     -76524.712      2008.0761     -55703.741     -25.183646      2121930.1    
     19100   400.63709     -76462.457      2015.6646     -55728.54       9.9474723      2119271.5    
     19200   400.73557     -76516.97       2002.3832     -55791.733      0.88897678     2116761.8    
     19300   402.98271     -76591.981      1927.9925     -55836.146      7.0665043      2114415.2    
     19400   398.67952     -76493.314      2000.2585     -55866.263      37.193353      2113925.8    
     19500   400.87254     -76573.704      1991.1919     -55853.259      3.7873745      2116716      
     19600   399.02644     -76446.523      1966.3699     -55837.152     -6.7187074      2121303.2    
     19700   396.13106     -76270.09       2005.8288     -55756.536     -5.2016903      2124504.4    
     19800   400.90013     -76364.532      1966.3442     -55667.646     -11.007363      2123804.5    
     19900   401.03043     -76403.194      1984.8263     -55681.738     -9.0387599      2121385.4    
     20000   400.29695     -76344.983      1936.1527     -55706.47       17.748701      2119058.6    
     20100   402.96143     -76558.651      1990.5011     -55741.302     -31.8413        2118980.4    
     20200   400.86698     -76436.89       1956.9464     -55750.95       12.139684      2118879.6    
     20300   397.6682      -76308.305      1960.6207     -55768.142      11.337507      2120578.4    
     20400   401.39323     -76476.263      1978.6407     -55744.042     -24.667846      2122888.4    
     20500   400.84925     -76421.088      1992.0936     -55700.83      -14.083869      2123894.7    
     20600   401.92612     -76428.63       1987.0511     -55663.101     -6.1512014      2123826.2    
     20700   398.70743     -76344.874      2051.228      -55665.55       7.4527488      2124032.3    
     20800   399.36954     -76360.655      2035.6833     -55665.94      -32.179665      2123929.5    
     20900   402.23817     -76505.026      2071.886      -55640.084     -24.022983      2121935.7    
     21000   400.39045     -76332.898      1975.2447     -55650.924     -10.378047      2120501.9    
     21100   399.08517     -76349.37       1993.9796     -55709.646     -0.93299853     2119985.4    
     21200   401.0483      -76410.451      1942.8964     -55730.09       13.404031      2120101.8    
     21300   400.91046     -76507.48       2024.7103     -55751.745     -15.090829      2120939      
     21400   400.68439     -76508.463      2046.3336     -55741.666     -38.112767      2122226.8    
     21500   397.73022     -76304.135      2029.4988     -55692.197      2.238092       2121565.4    
     21600   403.38002     -76521.91       2022.7797     -55652.725     -9.7705401      2120495.8    
     21700   399.88796     -76338.446      1965.9974     -55689.197     -1.1702711      2120217      
     21800   399.16029     -76414.807      2035.4584     -55730.094     -11.80812       2120857.9    
     21900   398.8473      -76328.4        1989.0621     -55704.707     -3.947591       2121423.7    
     22000   403.15939     -76457.53       1946.3906     -55675.042     -30.548564      2121588.7    
     22100   403.0136      -76529.905      1990.1253     -55710.494     -23.647999      2120414.6    
     22200   399.05129     -76373.586      1980.6812     -55748.744      4.6680741      2119542.9    
     22300   402.72796     -76570.172      1955.1804     -55799.052     -32.527624      2118569.5    
     22400   401.80839     -76609.888      1978.7287     -55858.183     -2.9897705      2116182.7    
     22500   398.44129     -76488.068      1993.885      -55878.521      30.776899      2115615.9    
     22600   400.98335     -76668.252      2032.2529     -55901.569      1.6094556      2116695.2    
     22700   401.4106      -76654.661      1978.8403     -55921.429     -1.1440518      2119425.5    
     22800   400.04734     -76577.944      1998.1078     -55889.138     -54.26017       2122336.8    
     22900   398.21597     -76418.082      1984.8246     -55828.122     -18.799055      2121774.9    
     23000   398.72284     -76410.368      1989.0092     -55792.543      14.086958      2119158.3    
     23100   403.20226     -76608.355      1946.283      -55823.971     -15.937724      2118086.3    
     23200   401.36935     -76557.315      1959.2879     -55845.562      10.523626      2117513.7    
     23300   400.92768     -76542.985      1948.3059     -55862.85      -12.279788      2117275.3    
     23400   399.06946     -76529.091      1999.9689     -55884.111      40.592529      2116650.8    
     23500   400.38888     -76626.349      2005.7064     -55913.987     -5.3101537      2117693.5    
     23600   398.73753     -76543.3        1987.4933     -55926.304      30.030669      2118936.7    
     23700   399.07144     -76543.184      1965.799      -55932.282      6.1641552      2120642.8    
     23800   400.03617     -76548.794      1959.8503     -55898.767     -22.670766      2121152.4    
     23900   399.31485     -76567.275      2063.5534     -55847.246     -26.47168       2118997.2    
     24000   404.02954     -76705.054      2012.8926     -55815.41      -3.451352       2115053.2    
     24100   400.18439     -76614.307      2012.0497     -55905.156      21.66396       2112929.5    
     24200   404.10834     -76872.66       1987.8711     -56004.356      15.540959      2113403.7    
     24300   396.78034     -76532.338      1971.0041     -56023.273      15.687505      2116126.9    
     24400   399.48585     -76609.423      1999.6479     -55945.31      -40.341087      2119247.1    
     24500   400.26393     -76597.335      2005.488      -55891.029     -14.854751      2119392.4    
     24600   401.38194     -76541.883      1910.0324     -55878.798      22.731402      2117685.7    
     24700   401.58871     -76702.134      2017.0397     -55922.382     -7.203383       2117147.1    
     24800   399.92834     -76625.713      1989.512      -55951.062     -18.870427      2116041      
     24900   399.73754     -76606.799      1972.1643     -55958.41       39.061622      2114043.6    
     25000   402.15606     -76716.931      1956.0144     -55971.696      5.4292148      2114634      
     25100   399.49876     -76712.643      2038.6267     -56008.949     -13.109225      2116044.6    
     25200   398.81733     -76690.55       2038.6859     -56018.634     -10.699877      2116105.6    
     25300   402.10995     -76818.532      2002.3988     -56029.067      1.5857852      2114994      
     25400   404.4914      -76861.759      1946.4272     -56017.002     -29.17945       2114987.4    
     25500   397.41293     -76617.159      2023.9724     -56025.57       22.653672      2114327.5    
     25600   401.29012     -76755.123      1961.5727     -56044.787      9.8965684      2114621.7    
     25700   402.64054     -76859.534      2000.5744     -56047.103     -13.65576       2115099.7    
     25800   397.7346      -76677.136      2036.7598     -56057.732     -17.874535      2114698.9    
     25900   399.29293     -76624.577      1949.009      -56020.116      38.67151       2113301.9    
     26000   398.97467     -76661.818      1984.2145     -56037.022     -9.1122443      2113960.7    
     26100   401.27618     -76784.239      1971.4071     -56064.721     -9.4626426      2115020.9    
     26200   397.29108     -76572.9        1947.1176     -56063.859      20.712339      2116620.7    
     26300   401.47182     -76648.871      1867.0331     -56024.586     -4.4973715      2118098.8    
     26400   399.46207     -76584.719      1928.6433     -55992.722      11.040374      2118728.2    
     26500   401.94683     -76735.173      1983.6047     -55972.123     -15.438705      2119166.4    
     26600   399.33411     -76664.058      2015.1562     -55991.526      5.7605225      2118700      
     26700   402.73889     -76805.221      1976.602      -56012.168      14.199648      2117631.6    
     26800   400.4063      -76770.504      2001.2712     -56061.763      12.151753      2118110.7    
     26900   399.74774     -76687.004      1945.4592     -56064.844      6.0952642      2119715      
     27000   400.35042     -76720.344      1965.693      -56049.792     -25.003983      2119673.5    
     27100   400.81816     -76761.846      2000.3914     -56034.742     -7.1619438      2116349.6    
     27200   403.24948     -76883.847      2000.0384     -56043.502      10.585918      2114219.9    
     27300   404.13472     -76952.794      1989.2463     -56081.882     -25.186736      2115068.2    
     27400   398.48834     -76758.241      2032.222      -56108.159      27.400313      2116224.4    
     27500   398.66592     -76729.28       1996.3451     -56106.778      15.226281      2118789.1    
     27600   398.73248     -76698.682      1987.0163     -56082.399      14.22878       2121144.4    
     27700   401.46363     -76709.426      1927.5502     -56025.007      4.2450451      2121926.3    
     27800   397.52892     -76564.081      1994.2817     -55996.764      8.3743007      2121632.5    
     27900   398.35706     -76617.718      2035.0375     -55970.954     -3.6873562      2120416      
     28000   400.1352      -76629.279      1950.0131     -55984.462      10.107604      2119270.1    
     28100   400.28993     -76695.241      1983.4612     -56009.747     -28.452814      2119556.9    
     28200   398.50628     -76605.913      1966.9642     -56020.25       6.4806722      2119308.1    
     28300   399.90937     -76600.656      1896.4103     -56019.994      20.049876      2119239.6    
     28400   398.03396     -76630.78       2026.7894     -56007.36      -13.88412       2119723.6    
     28500   400.37075     -76711.551      2024.5541     -55981.188      12.750519      2118015.1    
     28600   402.97377     -76846.048      1977.6202     -56041.002      8.1749114      2116760.5    
     28700   399.78514     -76840.376      2082.9        -56079.027     -22.742123      2118203.4    
     28800   397.52466     -76667.333      2011.3243     -56083.173      9.7598064      2118642.6    
     28900   401.79949     -76840.516      2008.002      -56059.953     -25.231443      2119766.7    
     29000   399.49575     -76690.988      1959.5559     -56066.504     -13.222132      2120635.5    
     29100   397.28788     -76579.195      1988.6557     -56028.766     -9.9196461      2119250.7    
     29200   400.05169     -76700.781      1986.1726     -56023.706      30.583649      2115900      
     29300   401.94496     -76868.31       2042.1711     -56046.781     -10.671095      2114158.7    
     29400   400.41426     -76754.589      1960.9672     -56085.78       13.910669      2112948.3    
     29500   404.25569     -77012.598      1960.4965     -56164.784     -20.789777      2113122.3    
     29600   400.40266     -76864.871      1981.3394     -56176.233     -23.367341      2114214.6    
     29700   398.71151     -76778.062      2019.9319     -56129.843      22.046659      2112982.7    
     29800   401.76682     -76966.206      2066.4264     -56128.745     -23.858169      2112512.7    
     29900   402.37743     -76957.874      2019.8245     -56138.486     -0.3847767      2111658.3    
     30000   400.13966     -76844.345      1959.2668     -56190.067      14.046491      2112250.3    
     30100   397.7314      -76787.063      1989.0017     -56215.567     -14.868034      2114103.8    
     30200   401.85685     -76922.421      1976.0539     -56171.126     -6.2537475      2113888      
     30300   401.26231     -76908.509      1998.1454     -56162.9       -28.751708      2114011.2    
     30400   402.15328     -76981.969      2035.9088     -56156.969     -5.5005832      2114119.2    
     30500   398.3523      -76823.592      2040.5936     -56171.494      5.8711485      2114139.9    
     30600   400.43664     -76881.441      2026.1845     -56146.369     -7.3919512      2114904.3    
     30700   399.04542     -76738.455      1985.2666     -56109.301     -3.0420159      2116980.9    
     30800   398.78298     -76642.116      1904.874      -56105.616      13.962024      2119594.7    
     30900   399.49182     -76685.873      1967.1186     -56054.011     -30.912704      2121715.9    
     31000   398.46233     -76625.837      1987.6964     -56021.496      3.1973937      2121903.4    
     31100   397.93141     -76639.835      2061.8027     -55986.193     -15.11549       2121077.8    
     31200   403.54406     -76833.413      1989.0931     -55990.25      -17.678335      2119106.2    
     31300   402.87535     -76829.831      1970.3495     -56036.655      6.2441218      2117269.6    
     31400   401.32214     -76864.976      2007.7177     -56106.999     -1.6303933      2115944.7    
     31500   400.02935     -76828.256      1987.1284     -56151.27       6.857468       2115907.7    
     31600   400.2308      -76871.952      2004.6557     -56168.026     -4.8710789      2115990.9    
     31700   399.69555     -76852.529      1983.2823     -56194.984      0.91925174     2114966.6    
     31800   399.81054     -76882.497      1971.9241     -56230.938     -3.5628043      2114068.4    
     31900   400.18961     -76892.392      1923.0693     -56271.977      23.851773      2112912.2    
     32000   400.07781     -77019.754      2041.3818     -56286.25       17.621192      2112988.1    
     32100   398.97195     -76939.412      1987.9844     -56310.973      3.3711457      2114703.5    
     32200   400.05514     -77009.606      2002.2739     -56316.27      -20.648264      2116077.9    
     32300   398.03206     -76927.52       2064.1466     -56266.831     -24.5615        2116552.3    
     32400   399.34227     -76959.2        2070.0325     -56231.411      0.011131901    2115133.5    
     32500   400.92228     -77019.152      2022.5803     -56264.995      13.420045      2113380.7    
     32600   400.20533     -77039.512      2052.1581     -56289.274     -12.273762      2113351.3    
     32700   400.04836     -76984.556      2006.8955     -56286.915      16.590927      2113686.5    
     32800   398.28769     -76959.912      2041.8918     -56309.535     -14.85228       2115745.5    
     32900   399.26399     -76945.627      2003.2445     -56288.283     -12.273563      2116886      
     33000   397.9995      -76943.039      2071.171      -56276.847     -5.5795403      2116317.4    
     33100   401.52505     -77036.993      2003.5309     -56273.723     -7.3171719      2115876.6    
     33200   398.55528     -76940.706      2010.6849     -56309.034      2.4727894      2115486.1    
     33300   403.05417     -77140.114      1967.753      -56341.179     -7.5995263      2114646.7    
     33400   400.33885     -76982.302      1916.7243     -56361.259      10.092468      2113017.5    
     33500   402.20854     -77158.704      1967.4803     -56399.551     -6.0300867      2111169.6    
     33600   400.0653      -77097.456      1976.2041     -56429.715      28.677322      2110770.5    
     33700   400.41407     -77178.018      2025.9516     -56444.234     -5.1215049      2111099.4    
     33800   403.31883     -77240.993      1953.8741     -56443.573     -18.47388       2111420.9    
     33900   402.28807     -77300.349      2037.6659     -56467.296     -25.777247      2111175.3    
     34000   396.8269      -77072.959      2032.1486     -56500.575      24.955095      2110796.8    
     34100   397.48459     -77073.271      1972.8552     -56529.453      25.661661      2111796.6    
     34200   396.58258     -77036.649      2000.1665     -56507.662     -18.046765      2113256.3    
     34300   400.28833     -77094.517      1952.2291     -56440.33       7.7894941      2112386.1    
     34400   402.62329     -77314.666      2028.419      -56475.197     -4.6485519      2112787.4    
     34500   398.59736     -77162.086      2011.3761     -56527.757     -9.3415661      2114778.2    
     34600   399.55323     -77175.131      1986.7763     -56520.742     -12.12757       2115027.7    
     34700   398.07899     -77116.279      2032.3144     -56485.23       22.212082      2112938      
     34800   398.52182     -77067.813      1977.7151     -56470.673      27.928646      2112612.3    
     34900   399.32718     -77046.446      1932.7164     -56456.678      4.4245035      2113754.9    
     35000   401.27497     -77169.249      2004.4912     -56416.703     -3.4914299      2114142.9    
     35100   402.97432     -77259.979      2019.1901     -56413.338     -36.228513      2113900.2    
     35200   399.86153     -77167.295      2044.3109     -56440.967     -28.365187      2112471.2    
     35300   401.42366     -77141.648      1935.9585     -56450.688     -6.7023298      2109903.1    
     35400   400.9972      -77188.726      1968.3324     -56485.317      0.70955325     2108106.9    
     35500   398.41944     -77112.402      1976.1199     -56521.641      47.084732      2106722.7    
     35600   401.15611     -77283.226      1981.9248     -56558.8        8.8119347      2108014.9    
     35700   399.34657     -77241.184      1995.3143     -56587.912      26.758105      2111103.3    
     35800   398.78786     -77212.717      1986.0767     -56594.786     -16.843148      2114544.8    
     35900   397.97349     -77115.169      1984.9329     -56536.431     -10.084146      2115926.1    
     36000   400.58479     -77133.258      1946.1697     -56471.279     -16.975075      2115344.7    
     36100   400.96055     -77159.883      1968.5814     -56457.937     -8.7999715      2113774.9    
     36200   399.90116     -77106.591      1962.467      -56460.255      15.474212      2112941      
     36300   399.17209     -77100.556      1976.7098     -56474.041      16.258605      2113135      
     36400   401.44698     -77219.23       2011.2016     -56451.937     -20.111576      2112297.7    
     36500   401.00528     -77200.281      2019.8148     -56445.012     -3.7559962      2110623.4    
     36600   401.81965     -77215.715      1988.7009     -56453.511     -30.248358      2109027.7    
     36700   401.20479     -77248.995      2022.2537     -56481.965      27.153581      2107125      
     36800   401.22731     -77388.785      2060.1873     -56582.77      -1.7434082      2106544.1    
     36900   401.80844     -77394.62       1979.0317     -56642.609      24.620294      2106648.4    
     37000   401.32145     -77451.013      2029.5395     -56671.247     -29.882742      2108947.2    
     37100   399.0759      -77304.97       2011.0264     -56648.632     -21.689236      2111633.5    
     37200   398.58453     -77200.059      1995.586      -56582.119     -36.693091      2112665.4    
     37300   398.36884     -77120.736      1982.2667     -56526.192      28.143233      2111911.6    
     37400   399.65951     -77221.64       2015.8923     -56533.169      11.623941      2113290.3    
     37500   399.36714     -77205.417      1977.4234     -56569.075     -15.064909      2113684.7    
     37600   396.96351     -77120.101      1997.1709     -56576.311     -15.996585      2112376.5    
     37700   399.58181     -77248.263      2011.8166     -56567.498      3.7223068      2110787.7    
     37800   401.08825     -77305.278      1990.0686     -56575.879     -7.1222916      2108848.1    
     37900   402.04613     -77355.379      2010.2424     -56561.052      16.835309      2108685.4    
     38000   399.26494     -77124.034      1882.0347     -56587.855      23.787173      2111098.9    
     38100   395.34302     -77126.439      2042.6446     -56612.887     -1.229559       2111784.5    
     38200   400.53896     -77324.33       1996.8789     -56613.783     -4.1374088      2110252.4    
     38300   401.44373     -77385.839      2007.2498     -56622.65      -12.667194      2108562.7    
     38400   402.47867     -77443.214      2007.0525     -56631.869      1.7445418      2108070.4    
     38500   396.95155     -77207.706      2017.1685     -56644.478      21.089937      2109706.4    
     38600   399.4385      -77267.08       1990.3485     -56614.479     -10.031735      2112073.9    
     38700   400.58976     -77304.488      1970.4975     -56617.949     -16.926979      2113682.6    
     38800   397.89428     -77210.974      2031.1384     -56589.731     -18.576148      2112989.3    
     38900   401.14928     -77302.434      2024.5179     -56535.734      5.6093741      2109247.1    
     39000   400.95533     -77292.244      1955.6665     -56603.457      23.323192      2106466.9    
     39100   400.47109     -77437.478      2030.3725     -56696.609      18.117135      2105971.9    
     39200   400.43126     -77457.68       1972.4101     -56776.634     -4.1444058      2106983.4    
     39300   403.83338     -77496.862      1858.6176     -56770.657     -34.460363      2108736.6    
     39400   399.53257     -77429.754      2017.8918     -56745.215     -10.09931       2109555.7    
     39500   399.24823     -77308.915      1949.9043     -56705.648      22.594253      2111110.4    
     39600   400.28949     -77240.734      1884.254      -56654.468     -12.611683      2113100.4    
     39700   399.11452     -77172.387      1951.9558     -56573.316      0.097369777    2113200.2    
     39800   398.74307     -77172.283      1976.3358     -56566.186      11.964936      2112003      
     39900   400.46686     -77220.088      1938.0319     -56571.757      46.288562      2110582.6    
     40000   399.40612     -77225.67       1949.1245     -56615.806     -1.3148439      2111265.3    
     40100   398.64776     -77166.01       1965.0926     -56575.609     -2.1571817      2111429.3    
     40200   396.35486     -77131.518      2066.2873     -56547.049      5.3844785      2110443.1    
     40300   401.39355     -77316.831      2016.7223     -56546.513      4.5730632      2109317.4    
     40400   401.91711     -77375.692      2009.6887     -56587.946     -7.0851921      2108873.8    
     40500   401.08976     -77327.468      1968.8466     -56619.22       7.9383341      2107300.9    
     40600   402.41721     -77415.844      1942.3254     -56672.097      1.2900816      2106043.9    
     40700   399.84409     -77368.086      1951.8823     -56735.002     -1.090404       2105711.5    
     40800   399.48881     -77369.531      1937.7515     -56767.176      6.4112018      2106264.8    
     40900   397.14232     -77312.846      1978.4427     -56779.431      24.360177      2107505.6    
     41000   398.19705     -77315.378      1981.7851     -56729.343      10.924623      2108544.9    
     41100   399.63688     -77300.36       1945.5897     -56683.249      9.172956       2110083.8    
     41200   399.85418     -77235.965      1929.8398     -56624.451     -20.623222      2111502.1    
     41300   400.41039     -77282.654      1986.5809     -56588.413      19.06127       2111013.9    
     41400   401.16079     -77319.55       1979.1897     -56597.641      10.628376      2110982.1    
     41500   401.37182     -77322.11       1967.6852     -56601.845     -40.701369      2112924.3    
     41600   399.67127     -77134.113      1917.588      -56543.397     -39.098973      2115031      
     41700   399.72289     -77244.402      2057.5342     -56511.328     -20.876216      2112988.6    
     41800   403.33159     -77315.825      1963.6004     -56508.082     -1.3820843      2109962.4    
     41900   405.47318     -77437.252      1927.1934     -56565.858     -9.1836902      2108390.6    
     42000   401.64511     -77371.647      1953.3042     -56652.994     -6.8261575      2108778.8    
     42100   399.0341      -77306.297      1978.1202     -56684.818      0.57897992     2109663.9    
     42200   398.27972     -77262.721      1983.1993     -56671.408     -2.3778266      2109917.1    
     42300   397.20838     -77224.591      1995.7302     -56670.803      20.888088      2108524.8    
     42400   401.9434      -77426.849      1947.0779     -56700.486     -20.316422      2107541.8    
     42500   401.4482      -77457.904      1989.4937     -56712.262      1.6862112      2106098.3    
     42600   400.9296      -77441.846      1958.7854     -56751.142     -7.8828784      2105427.1    
     42700   397.73979     -77362.043      1992.1037     -56787.052      16.523345      2105280.4    
     42800   402.38347     -77434.76       1851.5103     -56783.404      15.552283      2106204.7    
     42900   402.68362     -77432.58       1869.8844     -56748.828     -24.79485       2107812.6    
     43000   400.01995     -77356.933      1955.1455     -56712.368     -8.3263995      2108933.2    
     43100   398.08239     -77290.517      1992.2419     -56699.381      18.639838      2108967.5    
     43200   401.06776     -77435.685      1964.9142     -56732.397     -8.1010075      2108066.6    
     43300   399.06784     -77444.519      2066.5707     -56733.013     -10.028964      2107673.4    
     43400   400.22965     -77406.272      2000.8686     -56706.187      0.40350504     2107837.1    
     43500   400.72638     -77445.943      2007.3919     -56716.127      5.1438005      2108145.9    
     43600   399.30438     -77388.923      2021.1431     -56711.793     -22.060932      2108834.2    
     43700   400.19553     -77348.812      1977.145      -56674.045      10.86606       2109897.8    
     43800   398.7238      -77329.033      2001.894      -56698.278     -13.403827      2111007.6    
     43900   398.74536     -77331.903      2016.475      -56685.559      1.6047957      2110670.4    
     44000   398.34716     -77273.649      2006.8145     -56655.571     -3.5718379      2109437.7    
     44100   402.40386     -77462.516      1997.2834     -56664.434      18.531776      2106788.6    
     44200   401.67073     -77494.554      1975.5936     -56752.415     -1.6489325      2105212.1    
     44300   397.70746     -77403.232      2032.5807     -56789.275      32.374947      2104442.1    
     44400   398.60423     -77423.508      1995.9495     -56804.284      15.602501      2103780.4    
     44500   400.41447     -77444.481      1922.5725     -56814.057      12.668884      2103784.7    
     44600   399.97815     -77483.346      1973.1481     -56822.732      6.9376366      2104277      
     44700   399.92547     -77469.448      1982.2599     -56802.184     -26.008219      2106357.8    
     44800   401.08527     -77388.555      1903.202      -56746.162      2.9628802      2107678.2    
     44900   398.02591     -77330.188      2016.1512     -56717.782     -2.5310022      2107653.9    
     45000   401.77696     -77461.38       1969.0626     -56720.809     -2.2411141      2107169      
     45100   400.60659     -77401.154      1935.7988     -56748.528      30.730237      2106981.6    
     45200   402.31458     -77570.168      1987.589      -56785.952     -11.581252      2107871.5    
     45300   396.83702     -77300.07       1964.7477     -56794.614      28.840621      2109641.8    
     45400   394.54734     -77166.616      2003.8655     -56729.018     -0.55930256     2112182.2    
     45500   401.20759     -77265.13       1914.3723     -56605.851     -37.218378      2112794.7    
     45600   399.89634     -77211.442      1993.9229     -56533.876     -15.850561      2110338.4    
     45700   401.35553     -77250.294      1942.301      -56556.174      49.629678      2107035.2    
     45800   401.24033     -77380.748      1991.9337     -56642.378      19.835588      2107004.3    
     45900   400.34104     -77422.254      2002.0081     -56715.826      14.13641       2109005.9    
     46000   401.0754      -77449.63       1974.431      -56736.469     -22.654267      2111616.4    
     46100   399.76494     -77281.36       1924.9736     -56678.882     -32.748832      2112949.1    
     46200   397.24196     -77167.591      1986.795      -56621.168      15.141815      2111479.6    
     46300   400.96934     -77290.666      1955.695      -56601.196      24.955695      2109588.7    
     46400   400.64389     -77364.349      2002.5233     -56643.256      14.021922      2109561.2    
     46500   402.96451     -77435.72       1925.2351     -56683.492     -8.0309495      2110523.7    
     46600   400.09684     -77368.995      1951.21       -56724.774     -9.8401337      2111517.2    
     46700   400.27795     -77472.068      2039.6579     -56730.937     -29.525162      2110785.1    
     46800   401.5985      -77496.334      1997.6154     -56735.548     -13.243267      2108176.7    
     46900   400.65739     -77446.598      1961.2985     -56766.1        37.46666       2105436.6    
     47000   400.6745      -77551.666      2006.8485     -56824.817      26.049406      2104563.2    
     47100   399.24733     -77490.606      1982.1731     -56855.111     -4.204262       2106920.6    
     47200   396.58433     -77322.076      1972.0129     -56821.16       12.025702      2109967.6    
     47300   397.91192     -77343.382      1968.1172     -56784.336     -20.771328      2111117.8    
     47400   396.52098     -77212.429      1955.5535     -56730.933      42.930923      2110576.3    
     47500   400.40049     -77362.656      1936.2077     -56719.251     -19.823409      2111468      
     47600   398.66508     -77290.323      1976.0144     -56688.191     -11.573577      2110850.5    
     47700   397.96971     -77209.778      1944.954      -56671.196      17.75625       2108463.3    
     47800   400.79762     -77359.418      1959.1979     -56674.467      15.778174      2107131.5    
     47900   402.32037     -77463.486      1999.4791     -56667.109     -7.1352264      2107973.6    
     48000   401.65279     -77365.161      1925.808      -56673.646      14.28935       2110345.6    
     48100   397.36176     -77229.483      1976.7089     -56687.549      1.6705242      2112520.4    
     48200   404.49525     -77524.557      1964.8639     -56661.182     -42.267655      2112243.5    
     48300   399.20129     -77241.686      1968.0974     -56622.418      19.653393      2111884.1    
     48400   399.74517     -77194.672      1964.638      -56553.453     -5.7636902      2111998.7    
     48500   400.86635     -77279.596      2032.582      -56518.05      -13.313399      2111520.8    
     48600   397.74632     -77127.029      1975.8456     -56567.991      14.75496       2110493.5    
     48700   401.37317     -77371.112      2030.0326     -56588.436     -2.1099946      2110092.5    
     48800   401.10843     -77446.45       2059.4036     -56646.772     -4.8453489      2110387.8    
     48900   400.20301     -77346.447      1976.3716     -56672.104     -5.7717667      2111277.5    
     49000   398.29229     -77284.15       2003.5709     -56671.878      8.6428172      2111131.4    
     49100   396.10312     -77164.683      1998.3297     -56659.933      34.574909      2111685.4    
     49200   399.46994     -77322.804      1961.1251     -56697.957      3.0312732      2112955.3    
     49300   399.75255     -77266.748      1919.087      -56670.735     -2.8363341      2113609      
     49400   400.37102     -77269.15       1936.5275     -56626.801      6.3330829      2112078.9    
     49500   398.95614     -77224.228      1970.8613     -56613.651     -29.916652      2110815.1    
     49600   403.10472     -77462.878      2004.244      -56625.091     -12.037259      2108843.1    
     49700   399.90421     -77341.354      1991.7074     -56665.636      29.270935      2107549.5    
     49800   403.31208     -77460.165      1915.6822     -56701.252     -22.631814      2108331.8    
     49900   401.92275     -77410.702      1917.6136     -56714.768     -6.9871552      2109292.1    
     50000   398.08362     -77274.378      1982.2723     -56693.154     -17.966117      2110979.4    
     50100   400.50498     -77343.716      1987.6984     -56643.937     -21.721696      2110739.4    
     50200   400.56254     -77313.028      1967.9001     -56630.358      4.1183076      2109562.4    
     50300   399.85887     -77371.77       2005.2087     -56684.668     -5.0983122      2108769.4    
     50400   396.5048      -77267.884      2042.9598     -56699.737      3.0534463      2107382.1    
     50500   400.82353     -77510.548      2049.6147     -56733.97       29.617388      2104967.1    
     50600   401.02538     -77484.289      1962.7685     -56785.127     -11.875853      2106393.2    
     50700   400.63648     -77423.443      1927.5597     -56777.66       7.6917114      2108611.2    
     50800   400.45419     -77349.456      1883.8923     -56755.857      8.6486088      2111689.6    
     50900   398.83853     -77320.239      1966.1656     -56719.852     -8.8217062      2114440.9    
     51000   399.74524     -77271.638      1952.8795     -56642.175     -28.851559      2115908.7    
     51100   398.85619     -77210.948      1985.7695     -56590.132     -7.0171331      2114514.4    
     51200   402.0233      -77389.095      2013.8888     -56592.189     -23.165926      2111572.3    
     51300   400.60175     -77384.968      2047.6407     -56620.726     -29.038694      2109529.2    
     51400   398.84523     -77267.876      1972.2027     -56661.139      40.974855      2107947.5    
     51500   400.42807     -77362.647      1968.2412     -56685.919      21.19863       2108765.5    
     51600   401.66797     -77520.748      2039.508      -56714.823     -24.816164      2110706.2    
     51700   398.83451     -77301.515      1955.7453     -56711.737      3.8922228      2110728.5    
     51800   400.39134     -77340.191      1935.0514     -56698.369      2.7123497      2109876.5    
     51900   400.57901     -77436.304      1992.6157     -56728.15       4.2895857      2109936.9    
     52000   398.98883     -77345.762      1951.7406     -56752.778      18.061851      2109965.2    
     52100   400.9337      -77421.546      1965.2914     -56724.144     -8.5044613      2109596      
     52200   402.17382     -77457.656      1960.2024     -56707.404     -21.986514      2109807.3    
     52300   399.48939     -77347.622      1981.6581     -56701.333      2.9712779      2110625.3    
     52400   399.17761     -77359.084      1988.2171     -56720.804     -4.616766       2110601.7    
     52500   398.91954     -77329.369      1997.5953     -56693.768      27.595702      2109379.7    
     52600   399.29441     -77383.657      2027.6799     -56700.456      0.59379515     2107771.6    
     52700   399.42021     -77289.768      1953.0234     -56675.346      22.024092      2106852.3    
     52800   402.78594     -77436.581      1953.5942     -56664.337      5.1728339      2107517.3    
     52900   401.23587     -77395.955      1941.1707     -56708.556      8.9007006      2109001.4    
     53000   397.34623     -77315.228      2033.4664     -56717.262      5.0255296      2110572.3    
     53100   396.2588      -77163.052      1954.1289     -56695.23       21.358286      2110978.5    
     53200   398.10962     -77264.238      2019.5538     -56644.518      7.690966       2110765      
     53300   396.90755     -77244.964      2064.2396     -56636.721      21.445508      2110669.8    
     53400   401.30723     -77337.035      1941.5737     -56645.899     -9.0873855      2110994      
     53500   398.06197     -77204.222      1977.1172     -56629.165      26.231527      2111418.3    
     53600   398.67831     -77256.994      2012.9728     -56617.286     -6.6852987      2112235.6    
     53700   399.97526     -77279.744      1973.3187     -56619.094     -0.3960846      2111706.8    
     53800   398.79207     -77267.979      2023.721      -56612.208      8.8918583      2110345.3    
     53900   402.35913     -77371.927      1925.8923     -56647.327     -0.92862499     2108677.8    
     54000   400.683       -77391.078      1996.4882     -56674.193      1.6864252      2108496.1    
     54100   399.01447     -77276.862      1978.8137     -56655.607     -8.5428013      2110012.3    
     54200   401.20882     -77295.83       1919.4599     -56631.406     -2.3945221      2111266.9    
     54300   398.84562     -77274.049      2018.2106     -56621.286     -15.219577      2112310.5    
     54400   400.59692     -77271.133      1941.2994     -56613.459     -12.105332      2112866.7    
     54500   399.03816     -77225.695      1958.5144     -56623.633      31.471359      2112005.4    
     54600   400.98948     -77339.746      1953.136      -56651.894      4.5861639      2110665      
     54700   398.58514     -77318.949      1991.9128     -56704.653      27.146822      2109787.2    
     54800   399.88551     -77269.366      1947.9308     -56638.298     -10.131568      2111391.9    
     54900   401.93138     -77364.553      1974.3373     -56611.493     -15.9559        2112763.3    
     55000   399.35679     -77258.334      1997.5803     -56602.319     -18.797533      2113249.9    
     55100   399.47179     -77199.952      1980.7461     -56555.398     -15.221103      2112670.5    
     55200   401.62196     -77257.178      1949.323      -56543.589      19.673831      2111327.6    
     55300   403.66916     -77426.215      1987.3344     -56578.967     -19.588053      2111195.4    
     55400   401.18107     -77323.282      1934.529      -56645.085     -10.040758      2109803.5    
     55500   399.38831     -77301.354      1961.0483     -56680.398      30.545964      2109149.4    
     55600   399.10267     -77335.728      1977.4474     -56711.718      11.233079      2110006.5    
     55700   399.0719      -77346.123      1969.9432     -56731.055      14.864297      2109529.3    
     55800   401.70338     -77518.404      1985.8785     -56764.455      14.544772      2109480.8    
     55900   401.82781     -77497.615      1931.023      -56792.708     -12.36785       2110417.1    
     56000   397.42179     -77394.714      2040.5327     -56786.151     -21.56806       2110457.9    
     56100   398.75635     -77372.133      1991.1617     -56750.589      34.697421      2108584.9    
     56200   404.67914     -77619.326      1955.9167     -56756.308     -29.276687      2108351.7    
     56300   398.36351     -77387.438      2041.3191     -56734.091      1.5203457      2108111.1    
     56400   403.09891     -77516.162      1953.2106     -56729.679      4.1609734      2108599.4    
     56500   401.10747     -77524.068      2003.6422     -56780.197     -17.000639      2109415      
     56600   399.7517      -77405.328      1929.9912     -56798.451      22.313934      2107501.8    
     56700   401.35214     -77523.147      2001.4937     -56769.993      30.099123      2106299.9    
     56800   401.69232     -77563.031      1980.3801     -56815.097      14.994764      2107449.4    
     56900   398.78797     -77480.006      1998.8058     -56849.341     -20.84601       2111505.8    
     57000   397.8793      -77277.736      1897.825      -56790.506     -11.921481      2114258.6    
     57100   398.47058     -77306.995      1967.0031     -56722.962     -1.6156283      2113752.2    
     57200   397.569       -77266.728      1988.7684     -56703.052      29.394432      2109884.1    
     57300   400.9161      -77519.233      2040.9444     -56747.001      23.210373      2106871.1    
     57400   399.6713      -77490.325      1986.824      -56830.371     -4.0747488      2106856.2    
     57500   399.55332     -77463.858      1948.7056     -56847.535      16.269706      2108010.6    
     57600   396.91041     -77343.802      1990.7421     -56808.922      18.006556      2110184      
     57700   400.91583     -77402.651      1937.6622     -56733.714     -13.782442      2110502.6    
     57800   401.81228     -77448.288      1953.9816     -56721.148      13.68636       2110171      
     57900   398.08603     -77358.028      2031.4161     -56727.549      10.964098      2111470.3    
     58000   399.12204     -77375.965      1978.7631     -56749.735     -14.706949      2112792.8    
     58100   401.53715     -77514.006      2003.7037     -56749.998     -24.471975      2112695.4    
     58200   398.4281      -77383.868      2021.7862     -56747.036     -8.3586706      2111450.9    
     58300   399.77415     -77425.584      2022.7791     -56724.87      -11.212574      2110074.7    
     58400   398.16527     -77332.768      2005.608      -56724.394      11.886578      2108289.1    
     58500   399.88052     -77440.215      2016.8178     -56740.493      8.2858099      2107520.3    
     58600   401.12927     -77541.491      2044.1956     -56756.048     -10.533677      2108149.1    
     58700   399.79264     -77456.875      2012.3057     -56765.771     -7.4562953      2109817.5    
     58800   396.66456     -77263.61       1976.3652     -56754.594     -12.826272      2109801.5    
     58900   400.61587     -77436.933      2017.1921     -56702.48       10.342965      2107654.3    
     59000   400.95864     -77459.292      1977.0839     -56748.932      11.839864      2106083.4    
     59100   397.42445     -77398.03       2066.6522     -56763.223      12.251347      2105238.1    
     59200   401.66672     -77501.572      1953.3799     -56781.834      19.410956      2104458.1    
     59300   400.65475     -77472.881      1938.8965     -56814.907     -14.724782      2107076.4    
     59400   398.36778     -77386.208      1970.6389     -56803.341     -2.1112082      2108852.6    
     59500   399.89798     -77458.711      1997.05       -56777.941     -12.832665      2108040.8    
     59600   400.17503     -77386.115      1912.2163     -56777.235      38.412761      2105738.3    
     59700   402.26913     -77568.571      1963.3227     -56810.745      2.9329922      2105411.5    
     59800   400.78251     -77506.855      1936.897      -56844.911      12.232411      2105856.7    
     59900   402.76698     -77684.527      1979.3005     -56887.463     -24.565425      2106346.8    
     60000   400.53792     -77557.704      1956.606      -56887.479     -4.7873366      2106845.8    
     60100   401.08127     -77557.911      1962.1104     -56856.796      10.193269      2107478      
     60200   398.39337     -77386.761      1929.7959     -56843.542      12.700712      2108284.6    
     60300   397.84951     -77321.427      1925.761      -56807.653      3.671918       2107702.5    
     60400   400.54433     -77523.227      2028.1025     -56781.206      3.0586896      2105271.1    
     60500   403.40588     -77655.767      1989.0539     -56819.1        7.5010965      2102660      
     60600   401.61976     -77618.337      1991.5777     -56862.595      12.062833      2103487      
     60700   399.65404     -77605.127      2026.7701     -56906.034      20.997602      2105566.1    
     60800   397.1025      -77379.484      1922.1923     -56904.18       28.540842      2108230.2    
     60900   397.56852     -77459.308      2024.5339     -56859.889     -26.127775      2111584.1    
     61000   397.45998     -77373.822      2000.7243     -56803.284      16.919475      2112639      
     61100   397.97885     -77338.445      1990.8995     -56753.489      8.1519286      2112499.5    
     61200   398.74671     -77222.477      1881.5805     -56710.965      40.320355      2110506.4    
     61300   402.89185     -77476.355      1955.8955     -56696.862     -9.6477852      2109321.5    
     61400   399.29396     -77294.648      1943.6861     -56695.462      11.309743      2108109.9    
     61500   400.17192     -77370.002      1978.4949     -56694.988      5.5685353      2107195.5    
     61600   400.35756     -77417.608      2036.089      -56676.326     -23.719553      2108534.2    
     61700   400.72549     -77374.692      1957.7821     -56694.527      5.100104       2109154.1    
     61800   402.59688     -77452.862      1930.3155     -56712.73      -26.520313      2109721.2    
     61900   399.19445     -77342.406      1955.7466     -56735.809      4.5697838      2109576.2    
     62000   400.79878     -77398.688      1944.5227     -56728.358     -2.7954622      2108241.8    
     62100   401.55787     -77414.242      1915.5362     -56737.434     -15.998867      2106027.6    
     62200   398.85044     -77395.685      1987.248      -56773.659      39.671125      2104272.8    
     62300   398.30221     -77445.401      2000.0168     -56836.221      26.900142      2106057.5    
     62400   398.04338     -77488.391      2058.8466     -56832.474     -22.37894       2109171.9    
     62500   401.46264     -77506.983      1959.906      -56790.254      14.150044      2110633.6    
     62600   400.24981     -77468.231      1993.9962     -56774.076     -8.7232044      2111213.9    
     62700   402.53654     -77515.294      1954.569      -56753.728     -19.505219      2111161.9    
     62800   398.95312     -77379.039      1992.6616     -56746.802     -18.190301      2110833.5    
     62900   400.96478     -77430.994      2000.3732     -56697.058     -8.3164636      2109212.3    
     63000   401.37956     -77411.793      1948.4831     -56710.368      41.899651      2107553.5    
     63100   397.74149     -77370.758      1999.3604     -56788.432      41.364662      2108900.9    
     63200   398.0857      -77381.776      1991.9402     -56790.787     -1.2012813      2111243.7    
     63300   398.55668     -77370.961      2013.583      -56736.325     -8.6432323      2112125.2    
     63400   399.08309     -77333.037      1993.584      -56693.806      4.025314       2111313      
     63500   399.99305     -77375.147      2001.4278     -56685.557     -9.3918269      2110884.4    
     63600   400.0356      -77327.713      1978.6803     -56658.882     -8.6609085      2110010.9    
     63700   400.27124     -77294.92       1930.6873     -56663.073      22.707651      2109299.8    
     63800   396.98517     -77168.73       1973.5183     -56647.582      30.768387      2109096.2    
     63900   402.00045     -77332.92       1923.5581     -56627.412     -14.400291      2110213      
     64000   400.17083     -77295.605      1941.2088     -56657.928      18.064784      2111817.8    
     64100   398.21483     -77182.345      1928.8326     -56648.431      7.2525079      2113172.4    
     64200   397.50853     -77197.281      1995.2675     -56629.932     -9.2663274      2112803.2    
     64300   401.63827     -77342.049      1967.245      -56609.776      9.913632       2110681.4    
     64400   399.16812     -77266.942      1948.3701     -56668.952      47.339028      2109127      
     64500   400.70809     -77427.799      1982.5022     -56723.728     -7.6270137      2109700.2    
     64600   398.72554     -77404.239      2042.8864     -56732.41      -15.637084      2109537.6    
     64700   398.86912     -77342.817      2000.368      -56706.799      22.114075      2108062      
     64800   400.66067     -77422.012      1978.5117     -56724.146      2.419926       2107881.7    
     64900   400.54941     -77440.769      1982.5588     -56744.055      44.397475      2107717.4    
     65000   402.71326     -77511.805      1932.8939     -56763.658     -13.443346      2110062.3    
     65100   398.49242     -77393.146      1993.2829     -56781.812     -2.9040319      2111204.9    
     65200   399.27212     -77394.487      1981.0202     -56758.987     -9.2074994      2110482.9    
     65300   398.8337      -77359.798      1994.7876     -56731.015      20.294977      2107957      
     65400   403.76155     -77586.546      1968.2422     -56754.073      12.547873      2106756.9    
     65500   402.62048     -77635.22       2008.7302     -56815.571      1.6012457      2108645      
     65600   397.80075     -77428.485      1988.4334     -56854.317     -4.721108       2111158.1    
     65700   401.80361     -77531.602      1940.9212     -56817.927     -46.149763      2111776.4    
     65800   401.22855     -77429.618      1901.4106     -56782.321     -3.1348226      2109798.4    
     65900   398.60144     -77424.115      2021.8689     -56779.102      15.736107      2107753.4    
     66000   400.95738     -77488.844      1960.546      -56795.081      3.6562329      2107040.6    
     66100   397.78779     -77370.522      1961.7002     -56823.693      5.2305013      2107170.3    
     66200   399.12777     -77491.697      2007.5962     -56836.366      11.757855      2107152      
     66300   400.98235     -77508.537      1954.2758     -56819.878     -1.361277       2107270.8    
     66400   400.93575     -77491.564      1958.8129     -56800.545     -0.88938049     2107615.1    
     66500   401.44879     -77485.332      1955.6808     -56773.475     -25.517699      2109221.2    
     66600   399.31667     -77327.812      1942.4772     -56728.775      2.9633031      2110113.2    
     66700   398.83241     -77276.167      1934.1979     -56708.034      7.2494938      2110462      
     66800   401.09865     -77457.25       2021.2131     -56696.22      -9.8372642      2110831.3    
     66900   400.02598     -77362.519      1971.2727     -56701.545      1.0299117      2111183.9    
     67000   401.51506     -77356.305      1898.3772     -56698.655     -25.153011      2110544.7    
     67100   402.90756     -77444.725      1957.3547     -56663.039     -14.528212      2108597.2    
     67200   404.84265     -77603.471      1977.9305     -56710.8       -5.8283236      2107258.2    
     67300   399.38338     -77416.511      1970.5487     -56786.284      10.9325        2107506.5    
     67400   402.07514     -77624.644      2024.3733     -56814.831     -29.454545      2107912.5    
     67500   401.51655     -77521.187      1935.7999     -56826.045      4.3227777      2109142.1    
     67600   401.4431      -77543.945      1961.0082     -56827.027     -35.217677      2111994.2    
     67700   399.78401     -77445.955      1963.4771     -56804.082     -17.362126      2113416.4    
     67800   399.46535     -77327.554      1886.5513     -56777.495     -3.6558469      2113056.7    
     67900   398.16786     -77352.195      1997.5086     -56751.799     -12.93835       2110342.1    
     68000   404.48888     -77621.814      1964.955      -56758.646     -11.860221      2106571.6    
     68100   399.29091     -77444.219      1953.9379     -56834.924      41.747633      2104246.6    
     68200   399.50248     -77538.881      1969.9545     -56903.684      30.153         2104139.5    
     68300   398.82221     -77541.795      1980.1591     -56928.177     -0.53579679     2106975.1    
     68400   396.60867     -77449.141      2001.3538     -56917.747      14.874718      2109203.2    
     68500   398.78215     -77504.503      1998.6772     -56874.239     -4.7085066      2110307.9    
     68600   396.0535      -77256.645      1947.3304     -56805.214      1.7269989      2111195.2    
     68700   400.82788     -77434.481      1942.7737     -56764.541     -3.9671157      2109933.9    
     68800   398.51366     -77380.444      2012.1466     -56749.254      13.930491      2107978.4    
     68900   400.65096     -77408.75       1947.353      -56742.497      10.903213      2106547.9    
     69000   400.25132     -77360.17       1882.7339     -56777.207      25.052343      2105524.7    
     69100   400.78163     -77436.417      1917.3876     -56794.024     -3.0918967      2105027.6    
     69200   401.65114     -77498.268      1912.8068     -56819.832      9.2966154      2105581.1    
     69300   397.93906     -77392.956      1948.6744     -56852.085      1.6659429      2106726.9    
     69400   400.60271     -77532.547      1950.3284     -56865.572     -4.497518       2106093.9    
     69500   399.89535     -77517.022      1946.9353     -56886.489      18.207767      2104773.5    
     69600   397.85291     -77520.856      2041.9555     -56890.728      0.8772973      2105480.4    
     69700   397.42237     -77479.742      2044.6883     -56866.997     -9.6002276      2107218.6    
     69800   399.59367     -77379.044      1899.9724     -56809.57       10.495372      2107984      
     69900   401.63075     -77498.126      1948.0781     -56785.371     -12.691286      2107749.3    
     70000   399.21327     -77427.024      1997.4238     -56777.871     -9.1065659      2107938.7    
     70100   402.42991     -77577.57       1981.403      -56794.152     -10.021714      2107284.2    
     70200   402.03055     -77600.586      1974.339      -56842.89       14.226059      2105226      
     70300   400.16939     -77567.481      1966.5001     -56904.58       35.978557      2103926.4    
     70400   399.74135     -77623.52       1970.7726     -56976.345      7.608471       2104256.2    
     70500   398.84835     -77616.353      1974.8245     -57006.848      22.778566      2104108.9    
     70600   401.51265     -77731.397      1949.5126     -57022.725      0.24880347     2103006.9    
     70700   402.51654     -77755.903      1923.8736     -57025.967     -9.2400537      2103264.4    
     70800   396.59826     -77551.755      1990.0146     -57032.187     -2.7069028      2105356.4    
     70900   398.8987      -77626.144      2049.7086     -56939.403     -28.013076      2106909.1    
     71000   396.99915     -77428.511      1999.5993     -56880.628      8.1589955      2105614.5    
     71100   402.253       -77569.785      1929.3228     -56846.713      31.297391      2103358.2    
     71200   395.2335      -77377.79       2023.5325     -56888.468      25.030356      2104323.5    
     71300   399.31183     -77442.371      1904.2809     -56881.755      2.658218       2106665.7    
     71400   398.48127     -77384.393      1939.4386     -56827.425      5.2352386      2107688.2    
     71500   398.55118     -77297.672      1882.9341     -56793.942      34.340299      2106623.1    
     71600   401.23384     -77503.057      1954.4305     -56802.493     -23.983486      2106837.6    
     71700   399.03107     -77364.986      1930.7145     -56791.055      10.814485      2108503.1    
     71800   399.50051     -77387.694      1948.3448     -56774.199      5.2453396      2110387.7    
     71900   397.5517      -77340.257      1997.9023     -56768.255     -9.3545634      2110682.4    
     72000   401.05676     -77372.72       1920.4107     -56714.45       6.4866378      2108325      
     72100   403.68345     -77535.641      1969.5107     -56705.548     -35.341629      2107011.5    
     72200   403.09776     -77589.954      1991.1084     -56765.628     -12.031078      2105647.3    
     72300   400.99061     -77552.455      2012.1282     -56805.557     -22.325572      2105678.7    
     72400   400.3321      -77559.537      2012.0011     -56843.533     -4.7400075      2106531      
     72500   401.26193     -77548.642      1946.0983     -56855.099      23.23512       2107048.9    
     72600   399.66191     -77498.717      1975.741      -56850.285     -13.875671      2109238.2    
     72700   398.41997     -77396.871      1965.0037     -56817.201      1.7648852      2110092.4    
     72800   398.28937     -77360.251      1987.0494     -56764.637      11.417518      2108675.9    
     72900   399.41206     -77402.111      1986.3822     -56754.711      8.2523569      2107895.8    
     73000   399.42886     -77415.86       1974.3028     -56779.754      27.869672      2107088.7    
     73100   402.7047      -77643.929      2011.5887     -56817.487     -24.814736      2106233.2    
     73200   397.98888     -77398.03       1964.0409     -56839.465      22.405569      2106513.9    
     73300   399.73195     -77523.246      1980.2034     -56867.079      23.348463      2107396      
     73400   398.9236      -77532.083      2019.4718     -56874.415     -15.500328      2108686.9    
     73500   401.94469     -77510.561      1918.4764     -56812.74      -11.57134       2108014.7    
     73600   400.2796      -77454.191      1964.6001     -56788.041      14.983172      2106479.9    
     73700   402.18412     -77576.288      1970.7665     -56814.99       4.721094       2105250.4    
     73800   398.14201     -77397.113      1952.9271     -56842.507      36.530789      2105617.2    
     73900   400.04627     -77533.37       1980.6087     -56862.113      10.458377      2107149.4    
     74000   397.30667     -77378.464      1971.7093     -56844.104      31.102184      2108447.3    
     74100   398.13185     -77457.03       2023.1577     -56832.668      29.656251      2110511.7    
     74200   399.48677     -77431.142      1949.1747     -56817.459     -14.575502      2114014.9    
     74300   400.43671     -77438.973      1960.1184     -56769.964     -31.425187      2115304.1    
     74400   399.20459     -77364.361      2002.2272     -56710.809     -11.884173      2112826      
     74500   399.97556     -77438.434      2032.4507     -56718.639      0.77234784     2108966.4    
     74600   402.5211      -77506.91       1928.7594     -56771.875      33.276297      2106807.8    
     74700   398.33122     -77422.888      2003.6281     -56808.74       14.721857      2109072.7    
     74800   395.61894     -77281.046      1990.8388     -56806.409      11.682206      2110111.8    
     74900   398.13921     -77342.027      1984.9088     -56755.57       7.9276897      2108482.9    
     75000   402.0718      -77527.938      1993.2361     -56749.419      3.8262702      2107399.5    
     75100   399.13549     -77355.551      1927.7876     -56779.667      18.355993      2109196.2    
     75200   400.63586     -77448.067      1925.4761     -56804.396     -12.944898      2111370      
[...]
   1686100   302.85987     -89915.589      1565.4708     -74200.137     -6.0163645      1885653.8    
   1686200   302.31725     -89804.245      1524.2473     -74155.368      28.510285      1885877.6    
   1686300   301.94162     -89929.721      1488.0546     -74334.587     -38.626044      1887393      
   1686400   298.86834     -89959.553      1548.6476     -74447.412     -19.927697      1886304.9    
   1686500   297.65252     -89931.895      1532.7081     -74492.499      55.986146      1882699.1    
   1686600   299.4707      -90135.189      1527.4041     -74616.15      -11.190758      1882173.6    
   1686700   296.13004     -90235.966      1540.5739     -74859.836     -4.9734059      1882562.7    
   1686800   298.05609     -90208.582      1496.1358     -74786.903     -29.392316      1882015.1    
   1686900   299.82629     -90178.678      1516.0503     -74654.378      29.565947      1878940.1    
   1687000   298.17669     -90063.995      1537.5262     -74595.291      44.984557      1878819.9    
   1687100   298.94455     -89996.241      1515.8162     -74513.372      12.91615       1883338.3    
   1687200   300.94244     -89843.375      1506.1211     -74276.857     -37.202997      1889055.7    
   1687300   301.54259     -89792.429      1565.0073     -74138.985     -35.208134      1890919.7    
   1687400   301.49073     -89849.701      1561.4068     -74202.281      0.12387134     1887606.1    
   1687500   300.33861     -89971.943      1561.8799     -74377.878      7.20823        1883643.6    
   1687600   300.33792     -90111.34       1570.1991     -74508.988     -0.59722809     1881722.7    
   1687700   300.28444     -90113.672      1557.5248     -74526.493      8.2677492      1882645.1    
   1687800   298.59933     -89966.66       1561.3668     -74454.37      -6.9679499      1884292      
   1687900   298.48623     -89728.661      1571.7963     -74211.225      25.540944      1885401.2    
   1688000   300.14919     -89655.067      1512.2538     -74119.478      21.154368      1887958.8    
   1688100   300.38232     -89713.646      1496.5312     -74182.887     -31.398974      1890136.9    
   1688200   299.50594     -89770.583      1512.9192     -74264.381     -3.9297814      1887784.8    
   1688300   301.23924     -90035.899      1560.9974     -74400.638      21.575125      1884027.4    
   1688400   295.70572     -89940.829      1517.3907     -74607.707      24.744424      1882836.5    
   1688500   298.72313     -90067.831      1485.8232     -74625.3        1.8703386      1882472.8    
   1688600   298.66161     -90097.159      1555.696      -74587.63       51.025528      1881691.6    
   1688700   299.73746     -90045.299      1464.9789     -74576.221     -0.33197836     1883826.4    
   1688800   299.45095     -89935.065      1546.6505     -74397.702     -13.40582       1885693.2    
   1688900   301.21795     -89875.347      1571.6382     -74230.44      -9.7068103      1886229.4    
   1689000   301.39542     -89937.255      1534.611      -74321.084     -6.25114        1885842.9    
   1689100   300.05546     -90012.896      1518.7012     -74475.238      2.9355497      1884376.1    
   1689200   297.40306     -89924.508      1480.0223     -74549.452      35.478409      1882787      
   1689300   297.39471     -90012.709      1529.1162     -74588.95       14.375006      1882095      
   1689400   300.91276     -90166.317      1550.7869     -74556.52      -27.423906      1882274      
   1689500   299.35989     -90095.328      1546.8202     -74562.049      35.662565      1880523.3    
   1689600   299.13436     -90106.23       1534.3778     -74595.931      19.63519       1880979.7    
   1689700   299.07291     -90045.326      1512.7139     -74559.561     -35.589999      1884421.9    
   1689800   300.28779     -89865.076      1503.8243     -74331.441      9.3349111      1884579.2    
   1689900   301.00526     -89922.749      1589.9725     -74269.445      4.283189       1883563.1    
   1690000   300.36137     -89941.708      1570.3149     -74338.145     -1.6661093      1885003.5    
   1690100   298.7812      -89889.888      1527.1524     -74403.315     -31.049971      1885686.9    
   1690200   299.72291     -89981.67       1505.2717     -74472.979      34.461728      1882591.6    
   1690300   300.22603     -90182          1507.0382     -74648.036     -11.229485      1881190.6    
   1690400   300.93633     -90242.823      1497.3081     -74685.403      7.8872706      1880151      
   1690500   297.98605     -90050.819      1527.0868     -74601.462      1.1047876      1880394.4    
   1690600   302.17872     -90059.816      1525.0298     -74416.629      19.200188      1881290.5    
   1690700   299.54698     -89947.387      1569.2704     -74382.917      11.369226      1884042.3    
   1690800   300.63436     -90024.196      1543.4368     -74434.757     -33.363576      1885898.3    
   1690900   298.95818     -90087.658      1496.1215     -74623.847     -14.321454      1884875.6    
   1691000   297.00032     -90118.635      1544.63       -74697.789      37.990262      1881667.3    
   1691100   299.41081     -90195.566      1584.7949     -74621.934      31.463703      1880747.3    
   1691200   300.15832     -90043.501      1562.3697     -74457.369     -11.750219      1884781.3    
   1691300   298.99398     -89809.054      1555.4805     -74284.211     -25.233585      1889102.2    
   1691400   298.67172     -89729.84       1526.4958     -74249.038     -15.785225      1888605.8    
   1691500   302.62145     -89988.129      1577.7975     -74271.489      11.497502      1884174.4    
   1691600   301.69957     -90042.317      1544.4522     -74402.094      6.730267       1882288.6    
   1691700   301.50521     -90134.076      1525.6833     -74521.703     -4.587743       1881647      
   1691800   301.24437     -90188.262      1496.8383     -74616.92       11.415766      1880743.2    
   1691900   300.67763     -90292.01       1530.2        -74713.786     -36.945399      1881289.5    
   1692000   302.13556     -90346.47       1510.5981     -74719.73      -23.968584      1880491.5    
   1692100   302.98564     -90214.753      1559.7183     -74499.177      6.3037781      1879286.4    
   1692200   301.90447     -90080.497      1568.6357     -74406.517      27.12602       1880989.6    
   1692300   300.45794     -90038.204      1554.42       -74446.023     -39.809625      1885640.7    
   1692400   297.81606     -89866.204      1510.2078     -74441.668     -32.204401      1886405.1    
   1692500   302.2263      -89909.819      1539.0685     -74250.37       18.357678      1882684.1    
   1692600   301.669       -89907.687      1571.2342     -74242.11       36.241046      1882166.3    
   1692700   297.02223     -89823.661      1510.5881     -74435.833     -8.1635726      1885913.1    
   1692800   298.8889      -89925.077      1490.9411     -74469.683      4.979548       1885205.8    
   1692900   300.85443     -89991.336      1535.7241     -74399.327      10.677726      1883671.7    
   1693000   301.4593      -89992.597      1523.5852     -74384.467      18.572483      1883648.2    
   1693100   298.20931     -90015.335      1532.0645     -74550.568     -4.654369       1884533.9    
   1693200   297.54733     -90132.932      1524.0504     -74707.108     -33.303625      1883321.5    
   1693300   298.08978     -90038.707      1531.9832     -74579.606      44.823496      1880124.1    
   1693400   302.56357     -90127.624      1547.0646     -74444.421      18.239228      1880941      
   1693500   298.33242     -89949.661      1580.5937     -74430.613     -1.6314381      1884520.4    
   1693600   300.02981     -89935.554      1535.7456     -74382.051     -48.761999      1887564.1    
   1693700   304.22458     -89940.254      1551.9458     -74174.566     -22.33774       1886160.9    
   1693800   303.81651     -89823.561      1610.3446     -74018.539      35.871451      1883830.8    
   1693900   300.131       -89687.812      1521.5055     -74143.822      16.99312       1885754.3    
   1694000   296.82997     -89693.95       1542.7789     -74282.914      2.8118955      1887054.2    
   1694100   298.56266     -89847.624      1554.9604     -74343.453      0.60852877     1885354.6    
   1694200   300.61491     -90011.596      1562.6241     -74403.878      8.0462279      1882168.4    
   1694300   299.24456     -90133.228      1550.4844     -74601.673      37.838141      1879665.8    
   1694400   297.67973     -90151.931      1540.9639     -74703.008      13.295322      1880227.7    
   1694500   298.76915     -90209.7        1611.7916     -74639.05      -4.00697        1881916.8    
   1694600   300.85417     -90133.113      1545.7377     -74531.103     -15.852101      1884360.2    
   1694700   299.87669     -90022.911      1523.9541     -74488.353     -17.351149      1885309.5    
   1694800   299.83138     -89963.816      1542.2897     -74413.04      -9.762443       1884000.9    
   1694900   303.97252     -90204.468      1596.4809     -74406.021     -12.056419      1880730.2    
   1695000   299.27516     -90166.265      1510.7247     -74673.041      12.835059      1880475.4    
   1695100   298.51754     -90243.741      1562.5846     -74734.054     -19.091905      1881675.9    
   1695200   298.56911     -90120.16       1573.9141     -74596.733      14.311372      1881530.7    
   1695300   301.79807     -90076.423      1483.7302     -74492.32       25.991856      1881743.9    
   1695400   299.63888     -89951.365      1526.8096     -74425.062     -27.503396      1885035.9    
   1695500   300.7284      -89817.733      1547.4116     -74219.925      0.31273075     1886613      
   1695600   302.27399     -89729.088      1546.9381     -74059.542      22.053106      1887130.9    
   1695700   299.54505     -89652.128      1553.0801     -74103.939     -14.241154      1889029.1    
   1695800   298.00829     -89670.136      1552.3011     -74194.525     -2.5947875      1888620.7    
   1695900   300.97912     -89822.545      1494.2397     -74266.195      27.723141      1884655.7    
   1696000   301.68547     -89979.498      1534.4227     -74349.964      13.220756      1882801.7    
   1696100   301.5893      -90029.445      1515.6443     -74423.182     -1.1703755      1884543.6    
   1696200   297.83551     -89933.086      1560.1124     -74457.736     -18.355906      1885135.6    
   1696300   300.83105     -89954.629      1564.7647     -74334.672      24.942271      1882824.6    
   1696400   301.71094     -89894.173      1636.8331     -74161.038      31.812369      1883006.3    
   1696500   301.93187     -89860.694      1530.6316     -74223.438     -7.668541       1886083.7    
   1696600   296.71172     -89892.289      1568.8267     -74460.73      -28.230402      1887456.9    
   1696700   300.26667     -90057.995      1580.2206     -74448.95      -40.352294      1883660.4    
   1696800   302.41133     -90066.351      1570.4577     -74366.868      49.180164      1879451.3    
   1696900   300.77714     -90088.403      1578.5805     -74457.148      20.540582      1882283.4    
   1697000   295.79114     -89949.733      1489.8714     -74640.14      -31.677057      1887373.3    
   1697100   297.38709     -89893.271      1494.9483     -74504.036     -4.906673       1886618.2    
   1697200   298.70091     -89905.666      1534.8589     -74415.137      43.900248      1881617.4    
   1697300   301.5149      -90075.795      1531.5816     -74457.071      43.523944      1880462.7    
   1697400   297.83181     -90057.071      1516.893      -74625.113      15.156995      1883548.1    
   1697500   296.77357     -90078.023      1572.6922     -74639.708     -56.800062      1885992.2    
   1697600   301.58237     -90072.144      1506.109      -74475.74       5.6145913      1882864.7    
   1697700   301.27811     -90110.973      1594.7182     -74440.175     -7.966189       1881260.2    
   1697800   300.00576     -89992.272      1481.3542     -74494.283      3.7472507      1882666.9    
   1697900   301.97989     -90117.859      1480.6291     -74528.362     -48.985657      1884855.3    
   1698000   300.02554     -89991.074      1492.4018     -74481.114      16.925869      1882836.3    
   1698100   302.10808     -89989.764      1561.0284     -74313.879      48.994849      1882020.4    
   1698200   300.33152     -89853.402      1549.7234     -74271.824      0.61145234     1886248.8    
   1698300   300.43861     -89783.618      1507.2416     -74239.519     -54.177728      1890499.6    
   1698400   302.0858      -89755.437      1549.6272     -74091.994     -11.878872      1888806.7    
   1698500   303.98568     -89821.773      1542.6909     -74076.501      21.128455      1885327.2    
   1698600   300.34848     -89889.444      1535.3216     -74321.476      25.404562      1885547      
   1698700   298.34201     -89948.678      1595.97       -74413.806     -23.613908      1885954.7    
   1698800   297.36349     -89867.327      1560.8647     -74413.278      26.2           1883963.6    
   1698900   302.43613     -90042.41       1534.5688     -74377.657      40.946156      1882653.1    
   1699000   299.40943     -90086.65       1577.6306     -74520.247     -15.340373      1883777.7    
   1699100   296.61155     -90092.577      1584.9394     -74649.585     -21.655534      1884696.7    
   1699200   298.49976     -90005.714      1561.8135     -74497.629     -2.8608         1883971.5    
   1699300   301.52759     -90075.471      1593.9379     -74393.797      10.973353      1883110.1    
   1699400   298.91824     -89961.505      1553.2387     -74442.442     -8.2489789      1884033      
   1699500   299.12472     -89950.545      1484.8963     -74490.178      13.838322      1884676.4    
   1699600   300.21331     -89980.652      1503.2308     -74451.09      -11.861797      1884659.3    
   1699700   302.31646     -89896.407      1543.0663     -74228.748      27.413506      1883929.9    
   1699800   301.68724     -89835.466      1546.1452     -74194.125     -5.6371232      1886636.5    
   1699900   298.29414     -89737.098      1512.1027     -74288.331     -9.5980518      1889612      
   1700000   297.06933     -89821.69       1509.5354     -74432.714     -15.560673      1888611      
   1700100   299.57889     -90054.708      1525.1921     -74532.826     -18.28497       1883971.5    
   1700200   297.54174     -90027.393      1568.4437     -74557.437      36.189814      1880777.9    
   1700300   297.46183     -90113.518      1540.0929     -74675.646      23.647558      1880766.3    
   1700400   298.18403     -90158.054      1520.7752     -74705.758     -19.043635      1882399.3    
   1700500   299.35811     -90006.905      1559.0907     -74461.44       2.1059166      1883099.4    
   1700600   300.63688     -89976.767      1573.5674     -74357.078     -16.830548      1885453.3    
   1700700   299.59629     -89851.625      1515.3555     -74338.766     -2.183788       1886150.2    
   1700800   302.23963     -89910.816      1556.4815     -74233.331     -1.8532576      1885627.5    
   1700900   302.21075     -89777.236      1591.9067     -74065.675      25.67218       1885166.7    
   1701000   299.76361     -89573.946      1534.1488     -74034.477      21.881525      1887552.1    
   1701100   297.25096     -89713.085      1509.2413     -74315.917     -19.070626      1888998.4    
   1701200   300.95016     -89919.057      1506.2539     -74352.046     -12.982327      1886430.9    
   1701300   302.80867     -89944.38       1502.9012     -74293.89       7.3299989      1883750      
   1701400   299.63827     -89785.588      1520.0712     -74266.053      22.659491      1883850.9    
   1701500   300.06603     -89934.873      1507.1446     -74408.279     -17.058951      1885718.1    
   1701600   297.45407     -89982.283      1548.1471     -74536.719     -42.73655       1884491      
   1701700   300.27016     -90074.574      1572.0264     -74473.561      35.915593      1879829.1    
   1701800   302.39184     -89948.984      1517.3207     -74303.549      27.378371      1881040.2    
   1701900   299.767       -89679.244      1534.0866     -74139.678     -6.8350916      1887502.1    
   1702000   299.58223     -89571.055      1538.979      -74035.23      -40.279866      1890593.3    
   1702100   303.23552     -89503.57       1543.0112     -73793.027      31.160382      1888609.1    
   1702200   304.42569     -89593.364      1514.4541     -73855.771      9.9351473      1888266.9    
   1702300   300.93631     -89685.578      1584.6774     -74040.79      -15.806875      1889382.3    
   1702400   301.78128     -89782.367      1530.8639     -74151.914     -31.656297      1888155.3    
   1702500   300.82275     -89907.052      1547.9853     -74304.262      2.5638425      1884093.1    
   1702600   301.70106     -90110.443      1560.3227     -74454.28       4.7821178      1881725.6    
   1702700   296.73124     -89927.781      1545.0957     -74519.041      21.625676      1882215.7    
   1702800   301.01433     -90053.432      1525.4812     -74464.195      8.597622       1883248.9    
   1702900   300.85859     -89906.237      1643.9685     -74205.789      19.139308      1884718.5    
   1703000   301.20469     -89747.515      1508.7261     -74166.139      18.151167      1887537.5    
   1703100   301.04252     -89809.064      1513.6834     -74230.308     -34.830117      1890126.2    
   1703200   298.27056     -89727.373      1515.3841     -74276.425      5.22002        1887194.4    
   1703300   301.18847     -90114.203      1561.8325     -74480.478      18.275189      1881517.1    
   1703400   298.28566     -90164.249      1528.8279     -74699.152      27.549654      1879916.3    
   1703500   300.37041     -90255.789      1537.7672     -74684.351     -3.3068289      1880968.4    
   1703600   298.66041     -90033.92       1548.0044     -74532.137      17.907373      1882503.7    
   1703700   298.42212     -89894.23       1583.2196     -74368.366      35.362254      1884358.4    
   1703702   297.5485      -89830.338      1564.3894     -74364.121      46.988839      1884403.8    
Loop time of 5069.31 on 8 procs for 1000000 steps with 15675 atoms

Performance: 340.875 ns/day, 0.070 hours/ns, 197.266 timesteps/s, 3.092 Matom-step/s
99.9% CPU use with 8 MPI tasks x 1 OpenMP threads

MPI task timing breakdown:
Section |  min time  |  avg time  |  max time  |%varavg| %total
---------------------------------------------------------------
Pair    | 1104.4     | 1138.3     | 1180       |  64.6 | 22.46
Bond    | 18.162     | 21.201     | 23.163     |  34.1 |  0.42
Kspace  | 568.92     | 612.72     | 649.85     |  94.7 | 12.09
Neigh   | 2845.7     | 2849.9     | 2853.7     |   5.0 | 56.22
Comm    | 269.97     | 274.06     | 278.65     |  16.8 |  5.41
Output  | 0.57069    | 0.6128     | 0.7188     |   5.6 |  0.01
Modify  | 144.43     | 148.13     | 150.16     |  13.8 |  2.92
Other   |            | 24.39      |            |       |  0.48

Nlocal:        1959.38 ave        1989 max        1940 min
Histogram: 1 2 1 1 0 0 2 0 0 1
Nghost:        3399.12 ave        3416 max        3362 min
Histogram: 1 0 0 0 1 0 1 2 1 2
Neighs:        61469.1 ave       62645 max       60432 min
Histogram: 1 1 1 1 1 0 0 2 0 1

Total # of neighbors = 491753
Ave neighs/atom = 31.371802
Ave special neighs/atom = 0.76555024
Neighbor list builds = 1000000
Dangerous builds = 1000000

write_data end.data
System init for write_data ...
PPPM initialization ...
  using 12-bit tables for long-range coulomb (src/kspace.cpp:342)
  G vector (1/distance) = 0.12836569
  grid = 16 16 16
  stencil order = 4
  estimated absolute RMS force accuracy = 0.0036765647
  estimated relative force accuracy = 1.1071865e-05
  using double precision KISS FFT
  3d grid and FFT values/proc = 2197 512
Generated 0 of 6 mixed pair_coeff terms from geometric mixing rule
Total wall time: 2:24:08
