
units real
dimension 3
boundary p p p
neighbor 0.3 bin
neigh_modify every 1 check yes

atom_style full
bond_style harmonic
angle_style cosine/squared
special_bonds lj/coul 0 1 1

pair_style lj/gromacs 9 12

read_data end-cont2.data
Reading data file ...
  orthogonal box = (-3.3435324 -3.3435324 -3.3435324) to (98.343532 98.343532 98.343532)
  2 by 2 by 2 MPI processor grid
WARNING: Pair style lj/cut/coul/long in data file differs from currently defined pair style lj/gromacs (src/read_data.cpp:786)
  reading atoms ...
  8889 atoms
  reading velocities ...
  8889 velocities
  scanning bonds ...
  1 = max bonds/atom
  scanning angles ...
  1 = max angles/atom
  orthogonal box = (-3.3435324 -3.3435324 -3.3435324) to (98.343532 98.343532 98.343532)
  2 by 2 by 2 MPI processor grid
  reading bonds ...
  3000 bonds
  reading angles ...
  2000 angles
Finding 1-2 1-3 1-4 neighbors ...
  special bond factors lj:    0        1        1       
  special bond factors coul:  0        1        1       
     2 = max # of 1-2 neighbors
     2 = max # of special neighbors
  special bonds CPU = 0.001 seconds
  read_data CPU = 0.080 seconds

pair_style hybrid/overlay lj/gromacs 9 12 coul/long 12

kspace_style pppm 1.0e-5
kspace_modify order 4

dielectric 80

set type 1 charge  -1
Setting atom values ...
  1000 settings made for charge
set type 3 charge  1
Setting atom values ...
  1000 settings made for charge
pair_coeff 1*3 1*3 coul/long

## In kJ/mol and Angstrom
# pair_coeff 1 1   5.0 4.7
# pair_coeff 1 2   2.0 6.2
# pair_coeff 1 3   5.6 4.7
# pair_coeff 1 4   5.6 4.7
# pair_coeff 2 2   3.5 4.7
# pair_coeff 2 3   2.0 6.2
# pair_coeff 2 4   2.0 4.7
# pair_coeff 3 3   5.0 4.7
# pair_coeff 3 4   5.6 4.7
# pair_coeff 4 4   5.0 4.7
# bond_coeff 1 1250 4.7
# angle_coeff 1 25 180

# In kcal/mol and Angstrom
pair_coeff 1 1 lj/gromacs  1.19 4.7
pair_coeff 1 2 lj/gromacs  0.48 6.2
pair_coeff 1 3 lj/gromacs  1.33 4.7
pair_coeff 1 4 lj/gromacs  1.33 4.7
pair_coeff 2 2 lj/gromacs  0.84 4.7
pair_coeff 2 3 lj/gromacs  0.48 6.2
pair_coeff 2 4 lj/gromacs  0.48 4.7
pair_coeff 3 3 lj/gromacs  1.19 4.7
pair_coeff 3 4 lj/gromacs  1.33 4.7
pair_coeff 4 4 lj/gromacs  1.19 4.7

bond_coeff 1 2.98 4.7
angle_coeff 1 5.97 180


dump        mydump  all atom 10000 sds-continue3.lammpstrj

thermo              100
timestep 20

fix mom all momentum 1000 linear 1 1 1

#fix fxnpt1 all npt temp 300 250 $(100*dt) iso 1 1 $(1000*dt) mtk yes
#run 100000
#unfix fxnpt1

#fix fxnpt2 all npt temp 250 250 $(100*dt) iso 1 1 $(1000*dt) mtk yes
#run 4000000
#unfix fxnpt2

# fix fxnpt2 all npt temp 450 300 $(100*dt) iso 1 1 $(1000*dt) mtk yes
# run 2000000
# unfix fxnpt2

fix fxnptrun all npt temp 300 300 $(100*dt) iso 1 1 $(1000*dt) mtk yes
fix fxnptrun all npt temp 300 300 2000 iso 1 1 $(1000*dt) mtk yes
fix fxnptrun all npt temp 300 300 2000 iso 1 1 20000 mtk yes
run 500000
PPPM initialization ...
  using 12-bit tables for long-range coulomb (src/kspace.cpp:342)
  G vector (1/distance) = 0.14203324
  grid = 16 16 16
  stencil order = 4
  estimated absolute RMS force accuracy = 0.0038440705
  estimated relative force accuracy = 1.1576304e-05
  using double precision KISS FFT
  3d grid and FFT values/proc = 2197 512
Generated 0 of 6 mixed pair_coeff terms from geometric mixing rule
Neighbor list info ...
  update: every = 1 steps, delay = 0 steps, check = yes
  max neighbors/atom: 2000, page size: 100000
  master list distance cutoff = 12.3
  ghost atom cutoff = 12.3
  binsize = 6.15, bins = 17 17 17
  2 neighbor lists, perpetual/occasional/extra = 2 0 0
  (1) pair lj/gromacs, perpetual
      attributes: half, newton on
      pair build: half/bin/newton
      stencil: half/bin/3d
      bin: standard
  (2) pair coul/long, perpetual, skip from (1)
      attributes: half, newton on
      pair build: skip
      stencil: none
      bin: none
Per MPI rank memory allocation (min/avg/max) = 7.734 | 7.759 | 7.771 Mbytes
   Step          Temp          E_pair         E_mol          TotEng         Press          Volume    
         0   293.47102     -48664.111      1579.461      -39309.594      152.56803      1051470.6    
       100   290.79855     -48408.914      1523.1099     -39181.55       131.18189      1057400.6    
       200   289.43308     -48162.724      1498.2664     -38996.38      -68.892976      1068106.5    
       300   293.94284     -48017.098      1497.2343     -38732.306     -80.611931      1070776.6    
       400   298.63149     -47943.761      1539.0445     -38492.94       34.42033       1067828.2    
       500   304.79046     -48043.146      1598.7336     -38369.464      37.692135      1067118.2    
       600   295.30137     -47720.823      1555.9171     -38341.357      32.364335      1071062.5    
       700   299.21595     -47789.291      1585.4416     -38276.59      -75.973466      1074852      
       800   300.25912     -47718.431      1599.8702     -38163.663     -15.816542      1074682.3    
       900   302.98281     -47737.312      1612.1481     -38098.107      0.73631817     1073295.8    
      1000   302.71496     -47767.015      1547.3768     -38199.677      8.4247628      1072362.4    
      1100   295.07309     -47740.342      1602.7159     -38320.125      30.052512      1072206.2    
      1200   300.63573     -47792.915      1547.0025     -38281.038      6.1911156      1072900.2    
      1300   301.08753     -47654.975      1509.4399     -38168.691      33.365343      1074371      
      1400   299.18783     -47519.128      1488.7279     -38103.885     -15.030859      1076951.2    
      1500   300.96631     -47580.779      1572.9213     -38034.225     -35.358623      1077501.1    
      1600   302.38663     -47602.8        1580.0683     -38011.47      -22.169922      1076366.4    
      1700   301.00675     -47611.202      1561.7641     -38074.734      28.054089      1074830.4    
      1800   297.31241     -47716.962      1558.1049     -38282.029     -31.088161      1074536.4    
      1900   298.6965      -47748.117      1532.7404     -38301.879      0.68674188     1072236.3    
      2000   298.49826     -47709.909      1567.7833     -38233.88       44.776701      1070558.9    
      2100   302.52764     -47762.036      1590.2424     -38156.796      54.494247      1071738.6    
      2200   301.42462     -47565.646      1517.9201     -38061.951      18.583422      1076492.3    
      2300   302.37978     -47473.932      1549.5216     -37913.33      -45.200896      1080480.1    
      2400   300.79425     -47366.309      1534.0861     -37863.149     -19.245332      1080640.5    
      2500   300.49109     -47462.856      1543.1381     -37958.676     -9.3133586      1077446.4    
      2600   303.23914     -47699.47       1516.8257     -38148.796      16.039448      1073289.1    
      2700   299.27066     -47719.409      1565.0534     -38225.646      38.938835      1071550.2    
      2800   297.96108     -47769.803      1556.2987     -38319.49       2.9930921      1072405.5    
      2900   299.08359     -47830.552      1528.1166     -38378.683     -7.800957       1073476      
      3000   299.13394     -47741.481      1525.3997     -38290.994      7.096993       1072993.7    
      3100   301.08161     -47713.925      1603.0442     -38134.193      60.418418      1072733.4    
      3200   297.3331      -47596.936      1583.099      -38136.46       3.7057159      1076293.4    
      3300   298.08546     -47527.191      1543.1766     -38086.705     -39.399683      1078950.2    
      3400   301.37631     -47544.247      1556.647      -38003.105     -32.591587      1078511.2    
      3500   305.31314     -47656.231      1582.8058     -37984.63      -65.306917      1077155.7    
      3600   302.45084     -47589.019      1544.7969     -38031.259      31.970294      1074827.6    
      3700   302.21907     -47660.259      1513.1463     -38140.29      -13.375539      1074703.2    
      3800   299.41403     -47647.633      1538.7334     -38176.392     -14.802585      1075801.2    
      3900   296.28117     -47533.358      1531.1135     -38152.737     -11.333141      1076320.3    
      4000   301.8685      -47544.682      1540.4348     -38006.713      30.961556      1075916.9    
      4100   303.49344     -47556.861      1555.712      -37960.563      19.703228      1076654      
      4200   298.68709     -47492.606      1560.5432     -38018.814      42.110209      1077406.9    
      4300   300.16487     -47560.019      1580.6381     -38026.981     -36.952992      1077739.5    
      4400   301.76585     -47507.498      1557.3567     -37955.325      23.084553      1076960.5    
      4500   303.52022     -47538.248      1613.1814     -37883.772     -2.6604652      1077259.8    
      4600   300.9257      -47474.178      1602.244      -37899.377     -23.671345      1078818.3    
      4700   299.59983     -47497.986      1552.2787     -38008.277     -28.195525      1079397.9    
      4800   299.29353     -47568.118      1533.4669     -38105.336      5.3392548      1077296.4    
      4900   302.25214     -47743.966      1505.0592     -38231.208      10.087427      1074830.1    
      5000   297.63131     -47664.113      1496.6467     -38282.189      38.228729      1073045      
      5100   298.83015     -47713.27       1518.2641     -38277.967      20.972219      1072006.2    
      5200   299.84017     -47798.144      1577.7563     -38276.59       24.998674      1071624.1    
      5300   299.03855     -47758.538      1539.2377     -38296.741     -2.5460204      1072299.2    
      5400   299.27305     -47671.608      1489.6021     -38253.233      23.457817      1073568.6    
      5500   302.45558     -47678.542      1580.4016     -38085.052      8.5199612      1075022.9    
      5600   301.91967     -47604.887      1559.1894     -38046.807     -22.39465       1076706.4    
      5700   300.44193     -47575.232      1562.4296     -38053.062     -32.067443      1076813      
      5800   301.24774     -47599.174      1591.8381     -38026.247      17.532792      1075137.8    
      5900   302.71282     -47613.88       1579.1725     -38014.804     -1.9640455      1074580.4    
      6000   298.2501      -47641.529      1603.5355     -38136.323     -29.166221      1076002.4    
      6100   299.05967     -47707.56       1556.0889     -38228.351     -15.076358      1075475.1    
      6200   298.34194     -47717.221      1547.2494     -38265.867      16.779327      1073405.7    
      6300   303.59654     -47776.307      1537.8883     -38195.102      26.811589      1071860.1    
      6400   307.55704     -47715.513      1522.9366     -38044.332      3.4001515      1074101.5    
      6500   297.48243     -47523.135      1624.0035     -38017.798     -74.228981      1079816.8    
      6600   298.72066     -47326.998      1534.1578     -37878.703     -7.3392176      1082248.5    
      6700   305.46333     -47432.707      1562.6717     -37777.26      -10.918789      1080288.8    
      6800   305.38025     -47531.089      1578.8592     -37861.657      12.736129      1076588.9    
      6900   300.34874     -47538.766      1587.7874     -37993.707      19.392277      1074744.3    
      7000   296.49648     -47558.766      1608.3501     -38095.204      34.012044      1075096.6    
      7100   300.22119     -47648.098      1553.1299     -38141.076     -37.923835      1076853.8    
      7200   296.38965     -47594.684      1571.9476     -38170.355     -19.278604      1076904.7    
      7300   301.71359     -47617.243      1580.291      -38043.521      6.6569242      1076312.2    
      7400   302.24047     -47509.902      1542.835      -37959.677      51.003984      1076226.1    
      7500   300.63792     -47542.309      1538.9369     -38038.439     -17.522635      1078077.5    
      7600   297.36698     -47570.662      1584.483      -38107.905     -47.274587      1078724.6    
      7700   298.26715     -47657.966      1583.2037     -38172.64       21.912438      1075719.3    
      7800   299.57416     -47806.808      1611.1958     -38258.862      14.541305      1073118.6    
      7900   297.15075     -47710.266      1542.0098     -38295.711      34.356572      1072358.2    
      8000   298.60437     -47721.422      1605.7863     -38204.578     -0.27976456     1073106.2    
      8100   303.61375     -47653.197      1540.1725     -38069.252      26.745842      1075021.1    
      8200   299.73026     -47566.349      1576.7174     -38048.746     -52.223731      1078484      
      8300   299.88842     -47479.68       1536.3903     -37998.214     -31.987583      1079577.8    
      8400   302.90583     -47517.637      1566.7783     -37925.841      5.2095442      1077587.7    
      8500   304.04988     -47382.82       1567.8376     -37759.655      39.621707      1077234.1    
      8600   303.93861     -47385.586      1567.3667     -37765.84      -20.730164      1080026.7    
      8700   301.22423     -47463.588      1556.8328     -37926.289     -52.215816      1081199.2    
      8800   302.00916     -47573.193      1566.434      -38005.498     -41.813052      1078816      
      8900   298.77726     -47588.862      1593.8806     -38079.344      31.257731      1074757.8    
      9000   299.31059     -47657.762      1551.0225     -38176.972      50.955955      1073881      
      9100   297.91521     -47678.77       1531.5136     -38254.458     -15.364914      1075914.6    
      9200   300.21057     -47624.153      1557.4638     -38113.078     -11.433872      1076431.8    
      9300   299.73257     -47435.482      1531.3761     -37963.159      57.97584       1076071.8    
      9400   300.7901      -47499.601      1554.8271     -37975.809     -2.8119965      1078384.8    
      9500   298.36179     -47469.549      1564.633      -38000.286     -49.145918      1079434.3    
      9600   301.86224     -47534.61       1597.2223     -37940.018     -6.8617228      1076924.9    
      9700   301.14417     -47482.586      1632.0757     -37872.165      47.349675      1074079.2    
      9800   303.1496      -47546.344      1553.1734     -37961.694      32.583709      1074967.6    
      9900   293.88939     -47440.598      1551.6422     -38102.815     -11.111041      1077877      
     10000   300.23061     -47604.553      1606.0514     -38044.361     -37.814045      1076338.4    
     10100   306.66677     -47643.537      1549.586      -37969.294      61.666216      1071719      
     10200   304.45466     -47705.271      1535.1384     -38104.082      57.013523      1069961.3    
     10300   298.52301     -47743.531      1632.7763     -38201.853     -21.779898      1072754.3    
     10400   295.64111     -47575.356      1594.4524     -38148.354     -20.155755      1075899.9    
     10500   299.62368     -47487.753      1541.6029     -38008.088      5.0967141      1075943.5    
     10600   304.07695     -47614.253      1577.6808     -37980.528     -9.0946969      1074594.9    
     10700   302.24227     -47642.716      1545.4459     -38089.833      6.7388495      1073473.6    
     10800   300.38131     -47706.743      1582.7797     -38165.829     -22.462695      1073028.6    
     10900   298.83496     -47708.328      1616.139      -38175.023     -10.276099      1072460.4    
     11000   299.17365     -47744.793      1619.057      -38199.597      3.7665924      1071551.2    
     11100   299.04599     -47836.286      1622.444      -38291.085     -25.146799      1070851.1    
     11200   298.93705     -47848.737      1528.165      -38400.701      29.449706      1070133.8    
     11300   294.03836     -47843.29       1494.872      -38558.331     -9.0147488      1070530.3    
     11400   294.31495     -47880.311      1536.1599     -38546.736      40.454556      1070013.5    
     11500   298.75924     -47907.248      1623.1505     -38368.938     -17.143969      1069013.8    
     11600   299.65606     -47843.228      1572.087      -38332.221      46.211146      1068840.8    
     11700   299.68283     -47808.89       1549.01       -38320.251     -0.80234434     1071513.1    
     11800   299.4749      -47763.94       1579.4333     -38250.386     -47.725979      1073084.8    
     11900   300.36918     -47658.748      1589.0901     -38111.845      33.657002      1072703.6    
     12000   301.50476     -47678.686      1597.7835     -38093.004     -15.110086      1073922.7    
     12100   298.82805     -47740.314      1569.9131     -38253.418     -48.390344      1075117.7    
     12200   299.89547     -47871.489      1571.5038     -38354.722     -38.710597      1072988.3    
     12300   302.39894     -47882.15       1552.0484     -38318.514      24.734821      1070038.5    
     12400   299.78573     -47845.023      1618.8386     -38283.829      14.953442      1069986.7    
     12500   301.52549     -47765.91       1530.8436     -38246.619      49.059882      1072442.2    
     12600   299.00515     -47614.644      1591.8389     -38101.13      -47.901101      1077048.7    
     12700   298.28664     -47449.535      1571.2763     -37975.62      -14.044852      1078739.4    
     12800   302.09906     -47495.125      1526.1115     -37965.371     -56.674071      1077570.7    
     12900   303.10046     -47657.399      1547.9241     -38079.301      1.746992       1074070      
     13000   297.06094     -47691.028      1604.8777     -38215.984      23.967538      1071629.3    
     13100   298.67887     -47750.627      1607.9448     -38229.651      26.904877      1071933      
     13200   299.30878     -47728.839      1559.8826     -38239.237     -8.8168466      1073528.3    
     13300   297.31714     -47600.643      1588.4776     -38135.212     -4.9383927      1074428.7    
     13400   301.91906     -47617.301      1608.1639     -38010.263      1.6347935      1075345.8    
     13500   301.55779     -47569.998      1560.6751     -38020.02      -23.095387      1076473.1    
     13600   298.03308     -47486.411      1547.5492     -38042.94       16.080782      1076470.9    
     13700   300.08576     -47551.572      1522.5542     -38078.713      27.214386      1075534.2    
     13800   298.90871     -47681.304      1542.7518     -38219.432     -22.097687      1074887.2    
     13900   300.18213     -47812.141      1531.0448     -38328.239     -5.8652459      1073063.8    
     14000   298.26638     -47753.99       1573.5095     -38278.378      45.121636      1071493.7    
     14100   302.93854     -47756.832      1576.0254     -38154.923      5.7028825      1071997.1    
     14200   304.45531     -47653.971      1535.3427     -38052.56      -21.819833      1074791      
     14300   303.53604     -47476.408      1576.3561     -37858.338     -10.240448      1076620.2    
     14400   305.82687     -47451.935      1519.8062     -37829.723     -30.680454      1078278.7    
     14500   300.2922      -47497.053      1599.3146     -37941.965     -56.08498       1079029.2    
     14600   300.74687     -47509.44       1539.676      -38001.945      4.2899802      1076349.9    
     14700   303.30952     -47680.487      1561.0976     -38083.677      10.530258      1073461.5    
     14800   302.07577     -47735.92       1539.1481     -38193.746     -1.5884102      1073524.8    
     14900   299.23395     -47663.643      1524.4285     -38211.478     -2.798422       1074558.7    
     15000   302.01974     -47771.331      1585.3236     -38184.466      6.4354103      1073191      
     15100   303.09487     -47745.923      1523.7859     -38192.111      14.132183      1071970.5    
     15200   293.63502     -47711.041      1559.9565     -38371.683      17.167009      1072959.2    
     15300   295.51692     -47751.24       1563.7096     -38358.271     -3.0227358      1073881.7    
     15400   298.70841     -47701.698      1579.9571     -38207.927     -17.862217      1073291.6    
     15500   301.33722     -47734.528      1591.9091     -38159.159      11.46081       1072513.5    
     15600   299.93331     -47670.919      1584.4157     -38140.238     -4.7932739      1073180.9    
     15700   300.31062     -47667.627      1546.8366     -38164.529     -7.2389777      1074100.6    
     15800   298.76364     -47709.682      1562.2751     -38232.13       15.250497      1074010.2    
     15900   297.89277     -47760.856      1602.4706     -38266.182     -12.121983      1073141.5    
     16000   301.41474     -47798.29       1597.2061     -38215.57      -15.184588      1072475.3    
     16100   301.50572     -47630.685      1537.3089     -38105.453      51.602491      1072916.2    
     16200   299.62075     -47577.047      1619.0366     -38020.026     -18.73924       1075777.2    
     16300   299.71043     -47483.167      1610.4378     -37932.369     -7.8200684      1077612      
     16400   306.19755     -47452.283      1553.3942     -37786.663     -7.303497       1078622.5    
     16500   302.54687     -47395.98       1605.791      -37774.682     -36.865639      1079072.4    
     16600   298.47868     -47453.078      1572.0008     -37973.35      -30.255776      1078415.5    
     16700   300.13328     -47547.616      1554.8454     -38041.207      14.277254      1074963.8    
     16800   302.87699     -47683.917      1560.5046     -38099.159      54.26742       1071239.4    
     16900   300.68908     -47798.721      1587.8308     -38244.603      11.192434      1072064.1    
     17000   296.98353     -47757.334      1597.483      -38291.736     -74.466569      1074872.6    
     17100   297.7643      -47663.405      1593.5716     -38181.033     -2.1498384      1074299.6    
     17200   298.09256     -47594.511      1597.2615     -38099.752      53.693532      1072710.1    
     17300   298.22158     -47624.138      1630.8519     -38092.37       15.989831      1073515.8    
     17400   300.15393     -47715.826      1598.3029     -38165.413     -25.049689      1075708.6    
     17500   295.62129     -47648.359      1506.9665     -38309.368     -42.396962      1077212.8    
     17600   298.87789     -47761.298      1517.1        -38325.895      31.72487       1074648.3    
     17700   303.19747     -47749.435      1597.7607     -38118.93       39.332034      1072230.5    
     17800   306.35933     -47729.371      1476.4497     -38136.409      23.751778      1072856.9    
     17900   298.01169     -47675.129      1556.9528     -38222.821     -63.325734      1076251.5    
     18000   298.81979     -47717.452      1568.7211     -38231.967     -41.370047      1076125.6    
     18100   299.79079     -47648.346      1600.8668     -38104.99       40.938676      1074246.3    
     18200   301.26466     -47521.648      1544.4324     -37995.679      28.402894      1075026.8    
     18300   296.31401     -47439.901      1551.2662     -38038.257      18.840355      1076994.3    
     18400   299.61633     -47608.51       1521.2074     -38149.436     -9.4156984      1076530.9    
     18500   294.97651     -47701.3        1602.1828     -38284.175     -27.230726      1074188.7    
     18600   299.04046     -47849.537      1520.6989     -38406.227      28.034219      1070024.2    
     18700   300.37886     -47904.972      1502.358      -38444.545      71.263106      1068184.6    
     18800   296.94083     -47690.593      1497.1087     -38326.501      64.663075      1071832.7    
     18900   295.38636     -47516.055      1537.6298     -38152.625     -32.751706      1077748.9    
     19000   302.40141     -47567.299      1518.6619     -38036.984     -70.351748      1080051.9    
     19100   301.84624     -47428.678      1499.7655     -37931.968      12.762518      1078173.8    
     19200   304.54281     -47528.659      1527.2226     -37933.049      8.5263776      1075901.5    
     19300   301.64289     -47610.341      1517.4352     -38101.348      21.434537      1074513.2    
     19400   300.96847     -47659.073      1525.2658     -38160.117      51.239231      1073935.6    
     19500   297.69008     -47661.55       1584.4963     -38190.219     -36.670133      1074618.3    
     19600   301.98827     -47671.286      1571.8403     -38098.737     -30.39549       1074603.4    
     19700   302.41151     -47626.342      1624.3235     -37990.097     -9.1229825      1074564.2    
     19800   298.85166     -47507.399      1593.1884     -37996.602      46.622887      1075422.7    
     19900   295.0457      -47538.119      1560.3503     -38160.993      1.6160381      1077493      
     20000   291.70788     -47547.576      1576.5329     -38242.698     -14.970102      1076970.1    
     20100   299.68327     -47643.916      1576.193      -38128.082      16.164425      1074510.7    
     20200   304.21983     -47704.463      1571.9667     -38072.666      44.591009      1072866.2    
     20300   298.67972     -47606.188      1547.5159     -38145.619      60.429445      1074454      
     20400   292.96265     -47526.605      1579.9717     -38185.044      7.2861447      1078508.1    
     20500   295.65819     -47550.694      1582.9586     -38134.733     -20.162221      1079564.4    
     20600   297.18004     -47559.752      1624.3979     -38062.032      13.010978      1077281.4    
     20700   296.27225     -47518.34       1639.3713     -38029.698      71.140376      1075237.8    
     20800   299.90731     -47558.815      1566.0038     -38047.235      17.255061      1076413      
     20900   298.91527     -47683.468      1563.9036     -38200.27      -73.626246      1077632.7    
     21000   299.60209     -47792.175      1576.1008     -38278.585     -10.587469      1074398.6    
     21100   300.83737     -47754.993      1541.7415     -38243.035      50.883051      1071518.4    
     21200   301.56215     -47756.303      1611.805      -38155.079      31.401817      1071895.1    
     21300   303.49643     -47533.92       1511.4875     -37981.768      28.337015      1074586.5    
     21400   300.3622      -47447.351      1543.6476     -37946.076     -12.039636      1077852.9    
     21500   298.47926     -47466.052      1580.0099     -37978.299     -43.404563      1079047.4    
     21600   301.71781     -47551.945      1527.049      -38031.354     -4.5228202      1077382.8    
     21700   298.04402     -47558.911      1539.2651     -38123.434      12.202096      1075059      
     21800   298.76899     -47659.233      1535.0364     -38208.779      27.281087      1073749.4    
     21900   298.45202     -47698.013      1522.1475     -38268.845      13.071075      1074216.1    
     22000   298.33478     -47674.117      1572.6833     -38197.519     -8.3264402      1075587.2    
     22100   303.16825     -47629.237      1573.5515     -38023.716     -7.0967225      1076706.7    
     22200   301.78945     -47559.823      1561.2194     -38003.164     -23.583955      1077564.1    
     22300   298.43911     -47539.915      1534.8592     -38098.377     -51.909274      1077428      
     22400   299.27045     -47731.902      1594.6575     -38208.541     -13.585426      1074865.1    
     22500   300.01247     -47758.052      1539.6924     -38269.997      45.108028      1071535.5    
     22600   292.98721     -47731.194      1562.7159     -38406.24       36.52203       1071494.9    
     22700   294.07686     -47784.913      1511.0212     -38482.785     -26.850838      1073478.1    
     22800   298.92959     -47754.565      1529.0138     -38305.878     -17.593961      1073787.8    
     22900   302.18446     -47736.831      1533.1642     -38197.761     -16.140152      1073059.1    
     23000   298.58275     -47628.309      1584.0084     -38133.817      15.78696       1073454.2    
     23100   298.70556     -47638.201      1647.0232     -38077.44       2.7412839      1074485.8    
     23200   299.93627     -47570.095      1607.9898     -38015.762     -6.6412121      1075756      
     23300   298.75864     -47433.354      1588.9011     -37929.308      16.533547      1076310.8    
     23400   304.57879     -47526.434      1581.3291     -37875.765     -39.362262      1077353.1    
     23500   302.73854     -47533.746      1537.0978     -37976.063     -20.71264       1077649.1    
     23600   298.13986     -47557.375      1525.4892     -38133.135      3.1721125      1075548      
     23700   303.81039     -47763.899      1524.9101     -38190.007      25.178832      1072114.2    
     23800   300.04214     -47790.22       1590.2802     -38250.792      26.024692      1071294.9    
     23900   296.06645     -47698.891      1521.0335     -38334.039      0.056266475    1073588.1    
     24000   296.81357     -47806.445      1520.6363     -38422.196     -62.964228      1074510.4    
     24100   298.43004     -47798.225      1537.6801     -38354.107      18.024516      1072118.6    
     24200   305.07271     -47853.397      1565.2572     -38205.715      24.118947      1070413.4    
     24300   302.77842     -47755.264      1557.0739     -38176.548     -4.7754792      1072884.2    
     24400   297.46062     -47540.317      1519.3449     -38140.218     -45.658861      1077457.8    
     24500   301.20101     -47450.566      1519.074      -37951.642     -38.067695      1079078.7    
     24600   303.31969     -47475.295      1534.691      -37904.622      16.202128      1076443.2    
     24700   300.27337     -47553.67       1606.0201     -37992.376      18.747279      1074602.1    
     24800   300.37144     -47614.028      1546.0494     -38110.106     -0.2141859      1074961.9    
     24900   299.93651     -47709.282      1605.2515     -38157.681     -28.730443      1075920.6    
     25000   301.67208     -47652.326      1537.8589     -38122.136     -14.422052      1075544.7    
     25100   302.12638     -47647.708      1567.9007     -38075.44      -2.0967824      1074339.1    
     25200   301.71605     -47674.809      1533.3197     -38147.994      0.25821548     1073925.9    
     25300   297.02608     -47772.888      1594.091      -38309.554     -20.259755      1073492      
     25400   296.48452     -47721.22       1561.0902     -38305.235      38.158552      1072908.8    
     25500   299.51194     -47664.105      1537.0163     -38191.987      28.71683       1074060.6    
     25600   297.96075     -47569.128      1571.004      -38104.119     -10.026025      1077381.7    
     25700   298.126       -47532.945      1586.9068     -38047.655     -53.013235      1078245.4    
     25800   302.65036     -47618.538      1578.1832     -38022.106      4.5699848      1075475.7    
     25900   304.26439     -47727.487      1599.8962     -38066.58      -9.0071145      1074088.7    
     26000   298.10707     -47601.655      1540.9279     -38162.845      9.5560051      1075326.2    
     26100   296.39731     -47615.631      1569.3175     -38193.729     -33.461802      1076104.3    
     26200   303.25803     -47728.28       1576.7511     -38117.181     -11.758775      1074243.5    
     26300   301.86716     -47583.554      1566.4494     -38019.605      14.69133       1073730.9    
     26400   301.19775     -47642.381      1607.0853     -38055.531     -4.2173345      1075733.1    
     26500   297.16291     -47606.001      1490.6444     -38242.489     -14.974474      1077273.3    
     26600   298.18593     -47734.134      1588.0046     -38246.158     -5.0099972      1075980.9    
     26700   298.24923     -47626.127      1554.5202     -38169.959      42.429258      1074424.3    
     26800   300.88341     -47603.566      1554.0253     -38078.105      27.878729      1074721.8    
     26900   305.53516     -47602.075      1574.1279     -37933.27       13.947448      1076312.3    
     27000   303.87214     -47513.986      1597.4574     -37865.91       15.329075      1079254.5    
     27100   299.45316     -47470.356      1520.4564     -38016.356     -8.9100063      1081693      
     27200   298.48874     -47572.154      1565.1664     -38098.994     -48.904294      1080758.3    
     27300   298.77866     -47509.082      1528.4826     -38064.925      78.746508      1076677.5    
     27400   298.46806     -47518.745      1526.8082     -38084.491      51.07633       1075538.7    
     27500   297.59371     -47683.522      1553.2448     -38245.996     -21.42055       1076688.9    
     27600   296.32277     -47696.127      1546.3767     -38299.141     -5.0019859      1075754.8    
     27700   298.65609     -47680.784      1541.396      -38226.961      17.432529      1074537.6    
     27800   298.89011     -47639.485      1572.321      -38148.537      16.849679      1075338.3    
     27900   300.16866     -47638.851      1581.8281     -38104.522     -16.584301      1076980.9    
     28000   300.66677     -47612.289      1583.9933     -38062.599      14.129138      1078329.5    
     28100   302.97341     -47616.446      1621.1978     -37968.441     -23.549438      1078965.7    
     28200   303.67469     -47538.81       1606.9413     -37886.482      30.734709      1077993.6    
     28300   300.14053     -47570.602      1609.2196     -38009.628      12.974135      1078208.2    
     28400   300.5663      -47632.685      1531.2367     -38138.413     -18.182363      1078510.3    
     28500   299.20158     -47587.832      1529.5615     -38131.392      23.085356      1076463.1    
     28600   306.20715     -47718.746      1498.3589     -38107.906      2.0506121      1074974.6    
     28700   302.83697     -47667.5        1555.0195     -38089.288      1.9127905      1075717.6    
     28800   294.11515     -47580.753      1601.924      -38186.707     -1.8434017      1076647.9    
     28900   295.42382     -47600.935      1555.1913     -38218.951     -0.42893536     1075857      
     29000   299.75095     -47687.53       1596.064      -38150.032      38.065818      1074173.1    
     29100   304.89434     -47647.826      1538.0601     -38032.066      26.333858      1075862.2    
     29200   301.84596     -47584.591      1552.1228     -38035.531     -56.522658      1079665.5    
     29300   298.45408     -47524.663      1540.3903     -38077.198     -42.920384      1081371.3    
     29400   298.20048     -47444.497      1553.0956     -37991.045      20.089805      1079247.5    
     29500   300.69347     -47432.716      1587.9035     -37878.409      62.002522      1077258.3    
     29600   304.4574      -47519.007      1537.7953     -37915.088      1.8047792      1078271.4    
     29700   300.8137      -47588.214      1557.3199     -38061.305     -39.360991      1079335.7    
     29800   299.71779     -47604.727      1551.0171     -38113.155      9.9679591      1077355.9    
     29900   298.37496     -47555.752      1550.6554     -38100.118      42.072165      1075113      
     30000   297.48618     -47611.651      1573.8785     -38156.34       42.827927      1074156.2    
     30100   298.05149     -47682.824      1568.5353     -38217.88      -17.318261      1075331.8    
     30200   300.25629     -47603.567      1576.9538     -38071.791     -8.5271715      1075928.4    
     30300   301.38379     -47512          1583.6014     -37943.705     -1.8917415      1076914      
     30400   298.11074     -47372.496      1506.984      -37967.533     -0.075289526    1078216.9    
     30500   299.70629     -47549.948      1537.1883     -38072.509     -39.032564      1077774.9    
     30600   299.13714     -47635.058      1578.9839     -38130.903     -3.3934862      1075256.4    
     30700   298.92658     -47760.987      1580.5772     -38260.816     -14.163215      1072855.7    
     30800   300.3858      -47885.827      1539.6673     -38387.907     -19.695752      1072257.5    
     30900   302.07498     -47886.099      1526.6631     -38356.431     -21.579584      1072319.8    
     31000   302.04877     -47793.721      1550.238      -38241.172      1.390368       1072783.7    
     31100   300.7717      -47679.563      1545.8854     -38165.201      0.73528887     1074024.8    
     31200   299.02708     -47586.746      1502.5898     -38161.901      1.0229166      1075168.4    
     31300   298.4709      -47634.914      1539.3624     -38188.03       6.9466772      1076071.1    
     31400   302.24978     -47681.942      1468.9188     -38205.387     -12.987469      1075933      
     31500   299.41731     -47651.615      1517.954      -38201.067      15.26896       1075376.2    
     31600   302.22466     -47669.707      1543.3938     -38119.342     -15.174491      1074974.7    
     31700   301.58539     -47594.017      1567.6914     -38036.291      33.845656      1075217.5    
     31800   299.10191     -47560.406      1533.9943     -38102.173      43.794002      1077364.3    
     31900   300.23864     -47734.088      1533.6711     -38246.062     -68.844704      1078653.1    
     32000   297.64014     -47698.938      1575.0947     -38238.332      1.1313379      1075392.2    
     32100   303.42862     -47789.704      1553.648      -38197.188      37.808272      1071660.5    
     32200   301.07213     -47829.529      1607.2724     -38245.82       23.670768      1071974.8    
     32300   299.7998      -47795.288      1588.8087     -38263.751     -52.30133       1075017.8    
     32400   296.60888     -47661.461      1573.4745     -38229.797     -4.3337763      1076159.2    
     32500   300.79796     -47658.196      1567.0976     -38121.926      16.85971       1075332.8    
     32600   300.00186     -47533.34       1566.3329     -38018.925      20.119462      1075714.5    
     32700   300.90565     -47549.466      1612.1299     -37965.31      -27.206456      1077147.5    
     32800   300.66826     -47442.4        1579.0479     -37897.616     -8.5126353      1078934.8    
     32900   302.90627     -47347.8        1594.4528     -37728.319      24.420822      1080436.3    
     33000   302.77188     -47315.523      1552.8483     -37741.206     -24.676056      1081996.9    
     33100   299.44129     -47410.958      1599.1063     -37878.623     -11.622863      1081398.4    
     33200   304.73137     -47504.209      1513.2408     -37917.585      19.043721      1079462.5    
     33300   298.56835     -47475.517      1588.3077     -37977.107      12.21579       1079373.7    
     33400   302.0801      -47577.992      1581.6486     -37993.203     -39.206338      1080053.6    
     33500   304.28321     -47542.109      1570.3252     -37910.275     -18.356017      1079104      
     33600   303.67399     -47444.946      1648.3592     -37751.218      8.31984        1079721.2    
     33700   300.33124     -47367.403      1600.1858     -37810.41      -41.870811      1082315.3    
     33800   300.16304     -47423.462      1537.7872     -37933.323     -28.403623      1082017.7    
     33900   301.66438     -47483.85       1536.3011     -37955.422      21.343091      1078917.4    
     34000   300.40387     -47550.94       1592.2555     -37999.952      30.20869       1077058.4    
     34100   300.45684     -47566.113      1540.2548     -38065.723     -10.976494      1078229.4    
     34200   293.26        -47481.22       1526.6247     -38185.13      -11.287536      1078922.5    
     34300   293.82413     -47682.421      1553.4686     -38344.541      6.484021       1075881.8    
     34400   298.09        -47842.124      1630.2879     -38314.407      44.328296      1071251.1    
     34500   307.09356     -47901.948      1606.9        -38159.084      33.200813      1071104.3    
     34600   300.96633     -47594.224      1580.8968     -38039.694      37.811783      1076561.4    
     34700   300.35595     -47406.03       1564.9099     -37883.658     -60.98325       1081470.2    
     34800   303.03512     -47369.306      1554.5053     -37786.358     -19.461318      1081663.2    
     34900   304.01409     -47449.19       1530.2998     -37864.512     -9.9357952      1080220.2    
     35000   300.62329     -47473.376      1507.4458     -38001.385      15.871838      1079489.9    
     35100   297.25633     -47495.059      1545.1416     -38074.575      7.8371965      1079090.2    
     35200   300.74928     -47565.635      1557.206      -38040.546     -23.370995      1078702.1    
     35300   301.95078     -47477.602      1595.7044     -37882.183      21.157316      1078345.6    
     35400   302.37404     -47456.925      1605.1307     -37840.866     -6.3225715      1079337.2    
     35500   300.27619     -47427.548      1591.4755     -37880.723     -11.773864      1080629      
     35600   297.51965     -47384.741      1562.4569     -37939.965     -31.592783      1081564.4    
     35700   300.56871     -47456.416      1553.949      -37939.368      1.6060882      1080409.6    
     35800   298.21726     -47490.901      1624.6666     -37965.433      18.558975      1078057.4    
     35900   300.5087      -47577.064      1534.3995     -38081.156      14.316354      1075900.7    
     36000   299.28104     -47653.743      1540.9921     -38183.767      14.949362      1075743.2    
     36100   297.37304     -47657.839      1545.8699     -38233.534     -36.139987      1077312      
     36200   296.72937     -47610.958      1602.3525     -38147.224     -12.915636      1077341.3    
     36300   304.37155     -47632.316      1580.9796     -37987.487      2.1943535      1076518      
     36400   305.50446     -47678.373      1549.6192     -38034.89      -3.2587451      1076855.6    
     36500   296.64309     -47557.133      1570.3956     -38127.642     -36.485895      1078661.9    
     36600   299.44595     -47632.187      1528.8845     -38169.95      -16.060093      1077890.8    
     36700   300.11765     -47654.294      1546.9599     -38156.185      9.2476726      1075928.4    
     36800   304.55521     -47671.282      1599.0438     -38003.523      42.408869      1074766.5    
     36900   303.71497     -47622.805      1565.2905     -38011.06       1.2789563      1076258.7    
     37000   298.17939     -47597.846      1546.4253     -38151.622     -43.56379       1078233.1    
     37100   298.687       -47624.581      1535.588      -38175.747      6.4150607      1076077.7    
     37200   301.31238     -47683.301      1533.854      -38166.646      52.741477      1073072.1    
     37300   301.6884      -47843.255      1576.4483     -38274.043      12.341337      1073319      
     37400   292.28232     -47710.092      1562.2239     -38404.304     -4.3790692      1075377      
     37500   299.75336     -47808.491      1575.6547     -38291.338     -40.654604      1074429.9    
     37600   301.36358     -47720.46       1544.1689     -38192.133      68.854534      1071893.3    
     37700   299.5662      -47723.101      1588.0182     -38198.544      22.164486      1073424.8    
     37800   297.53337     -47674.733      1550.4121     -38241.639     -71.300993      1077114.5    
     37900   298.8093      -47673.002      1537.1312     -38219.385     -25.726906      1077768.4    
     38000   302.1674      -47595.891      1543.4451     -38046.992     -18.781526      1077495.3    
     38100   301.26889     -47571.528      1562.6293     -38027.25       23.991422      1076923      
     38200   300.25042     -47627.115      1542.6139     -38129.835      17.557849      1076687.1    
     38300   299.69822     -47696.249      1533.0803     -38223.131     -0.49069398     1076282.4    
     38400   300.13291     -47804.385      1572.9722     -38279.86      -18.054548      1074380.3    
     38500   297.10114     -47804.028      1520.818      -38411.979      10.306427      1073444      
     38600   293.88134     -47788.274      1553.6643     -38448.682      17.282038      1072569.2    
     38700   300.20509     -47769.934      1510.6237     -38305.845      51.880374      1072781.3    
     38800   298.80648     -47642.809      1536.102      -38190.296      12.184797      1076597.1    
     38900   299.06415     -47598.153      1562.9772     -38111.938     -66.859398      1079827.5    
     39000   302.49174     -47574.091      1535.6023     -38024.442     -49.715717      1079197.2    
     39100   306.7702      -47611.584      1508.7933     -37975.393     -1.2864337      1077886.3    
     39200   299.60488     -47515.762      1537.0827     -38041.116     -25.056374      1078096      
     39300   296.09715     -47670.713      1567.8457     -38258.235     -52.743688      1076697.3    
     39400   302.98988     -47973.74       1630.18       -38316.316     -21.839596      1071771.1    
     39500   302.29957     -47878.83       1556.0509     -38313.823      59.718338      1068431.4    
     39600   297.22031     -47753.329      1543.8254     -38335.115      27.060827      1070880.4    
     39700   296.11944     -47792.035      1595.5852     -38351.227     -54.752127      1074829.4    
     39800   297.51433     -47663.797      1609.0297     -38172.589     -16.577665      1075405.6    
     39900   302.55068     -47668.152      1565.7232     -38086.821      4.7565072      1074557.1    
     40000   295.49218     -47509.888      1550.7281     -38130.556      89.469684      1074285.3    
     40100   296.76793     -47588.211      1511.5828     -38214.225     -27.927807      1076215.4    
     40200   298.77078     -47659.994      1532.9852     -38211.543     -55.370519      1076150.5    
     40300   302.96407     -47596.322      1549.0316     -38020.73       48.879476      1074571.2    
     40400   304.78814     -47673.035      1572.8228     -38025.326      6.794716       1074799.6    
     40500   300.29229     -47614.898      1518.1261     -38140.996     -4.9922129      1076490.2    
     40600   297.11731     -47566.131      1524.9143     -38169.557     -32.737062      1076486.6    
     40700   300.15025     -47647.571      1601.5188     -38094.04       11.931375      1074916.5    
     40800   299.63814     -47572.136      1571.6916     -38061.999      4.7774335      1075184.1    
     40900   298.24363     -47464.216      1527.8825     -38034.834     -3.1424461      1078331.2    
     41000   302.70451     -47505.646      1530.7647     -37955.197     -67.807719      1079989.2    
     41100   306.89504     -47585.989      1533.6899     -37921.594     -19.123539      1077589.7    
     41200   302.41476     -47534.59       1566.9126     -37955.671      29.683775      1075953.3    
     41300   302.19178     -47583.693      1569.0769     -38008.517     -41.759391      1077622.7    
     41400   298.59343     -47467.976      1541.0139     -38016.195     -28.742162      1078854.7    
     41500   299.31371     -47482.203      1569.5326     -37982.82       32.7515        1078053.1    
     41600   302.92923     -47529.43       1591.0216     -37912.771      2.0296436      1077413      
     41700   304.09202     -47477.135      1528.6595     -37892.032     -4.2294413      1077522.4    
     41800   299.23724     -47474.269      1517.0131     -38029.432     -12.755316      1078737.3    
     41900   299.69155     -47558.765      1520.3267     -38098.579     -25.303713      1078553.6    
     42000   303.91641     -47624.539      1519.8459     -38052.902     -8.9716402      1075891.8    
     42100   300.97817     -47534.792      1585.5761     -37975.269      75.331804      1072624      
     42200   301.24721     -47617.128      1625.128      -38010.925      32.500775      1073562.1    
     42300   296.18159     -47585.855      1560.8868     -38178.099     -23.880114      1076707.8    
     42400   296.26897     -47548.677      1549.8282     -38149.665     -9.3940755      1076993.7    
     42500   301.12492     -47575.371      1570.2773     -38027.258      16.847007      1075799.8    
     42600   299.81202     -47483.994      1553.2487     -37987.693      17.232788      1076828.6    
     42700   298.76519     -47466.191      1578.666      -37972.208     -33.254909      1079152.6    
     42800   300.03713     -47368.353      1603.7822     -37815.555      12.588026      1079632.1    
     42900   305.1392      -47406.973      1592.6511     -37730.135     -6.4560736      1079607      
     43000   303.21505     -47478.374      1574.6742     -37870.49      -1.3538968      1079217.8    
     43100   302.69173     -47575.07       1571.2509     -37984.474     -42.076793      1078668.6    
     43200   300.59859     -47615.879      1601.2836     -38050.705     -19.951312      1077146.6    
     43300   297.69868     -47597.472      1603.1106     -38107.299     -0.15817045     1075288.4    
     43400   297.7327      -47706.649      1600.1297     -38218.556      21.090299      1073121.6    
     43500   294.81082     -47771.469      1599.3161     -38361.6        25.473274      1072031.6    
     43600   295.6233      -47780.452      1586.4729     -38361.901      39.475531      1071631.3    
     43700   301.8147      -47786.535      1524.4722     -38265.953     -13.373099      1073344      
     43800   298.673       -47674.861      1566.6932     -38195.292     -33.368972      1076443.9    
     43900   298.60367     -47662.705      1656.1995     -38095.467     -68.296802      1078599.9    
     44000   302.29194     -47582.566      1573.1574     -38000.655      3.8185368      1077447      
     44100   300.29607     -47494.089      1557.547      -37980.666      18.328771      1076099.4    
     44200   301.77289     -47657.056      1551.951      -38110.103     -25.136912      1076104      
     44300   293.76934     -47568.568      1551.171      -38234.437      27.818622      1075414.8    
     44400   298.49387     -47689.021      1586.7289     -38194.163      2.8526892      1073216.3    
     44500   301.56066     -47686.197      1547.2003     -38149.618      26.293576      1071595      
     44600   299.61337     -47625.827      1559.9876     -38128.05       10.096103      1073097.8    
     44700   298.00232     -47558.263      1498.0235     -38165.133      19.440662      1075360.4    
     44800   298.85782     -47740.909      1563.4688     -38259.669     -68.431859      1076171.9    
     44900   301.54689     -47768.448      1530.185      -38249.249     -15.049699      1073895.4    
     45000   302.55274     -47815.446      1577.7581     -38222.025      37.69023       1070082.3    
     45100   301.40188     -47838.734      1583.0109     -38270.55       14.514082      1069956.2    
     45200   302.03089     -47918.804      1549.9884     -38366.978     -90.988819      1072749.3    
     45300   300.12479     -47777.114      1544.4203     -38281.356     -10.9081        1072717.8    
     45400   304.34706     -47780.16       1588.7285     -38128.231      17.053262      1072596.8    
     45500   301.87711     -47721.278      1599.8898     -38123.626     -8.2923584      1075400.8    
     45600   296.4852      -47540.092      1553.2159     -38131.963     -35.984273      1078087.8    
     45700   304.9471      -47624.382      1505.1986     -38040.086     -23.327896      1076666.6    
     45800   306.51781     -47582.6        1561.415      -37900.473      32.493185      1074777.5    
     45900   303.43711     -47619.729      1633.5432     -37947.093     -38.000185      1077242.4    
     46000   298.81259     -47559.284      1493.2979     -38149.412     -74.445893      1078469.2    
     46100   302.6065      -47721.508      1546.0763     -38158.345     -9.3388103      1074140.5    
     46200   302.62815     -47739.543      1566.5745     -38155.308      87.533112      1069913.7    
     46300   300.74128     -47752.749      1492.1165     -38292.961      19.1634        1072202.9    
     46400   294.99334     -47673.222      1520.6227     -38337.211     -52.059974      1076963.3    
     46500   294.6218      -47655.971      1652.5378     -38197.888     -67.424604      1077349.8    
     46600   304.24727     -47731.14       1552.2874     -38118.296      30.608664      1072891      
     46700   301.65493     -47755.522      1560.2822     -38203.363      39.063167      1070989.7    
     46800   299.10179     -47809.69       1566.0218     -38319.433     -16.36441       1072646.5    
     46900   297.39829     -47695.76       1513.5928     -38303.064      34.034489      1074392.4    
     47000   300.52177     -47678.727      1515.3761     -38201.495     -25.462366      1074944.6    
     47100   299.38514     -47638.638      1573.4458     -38133.451      32.492707      1073511.4    
     47200   297.46228     -47638.377      1597.8171     -38159.761      46.407591      1073492.1    
     47300   299.92367     -47723.24       1554.1754     -38223.055     -14.414811      1075219.1    
     47400   298.85308     -47758.043      1530.8722     -38309.524     -41.255897      1074513.3    
     47500   298.15761     -47822.551      1575.3658     -38347.965      34.07436       1071193.5    
     47600   300.77118     -47903.252      1567.0587     -38367.73       17.649916      1069803.7    
     47700   296.08782     -47838.138      1604.9354     -38388.817      2.2216998      1070965.2    
     47800   298.45308     -47797.005      1582.0803     -38307.876     -33.792205      1073367      
     47900   299.06601     -47675.155      1587.1518     -38164.716     -24.35266       1074627.3    
     48000   303.29423     -47650.205      1512.2182     -38102.68      -25.672918      1074904.9    
     48100   302.91748     -47672.919      1507.4177     -38140.176      7.1735388      1074099.4    
     48200   300.58852     -47787.386      1526.2502     -38297.512     -14.142062      1072651.5    
     48300   297.85787     -47774.781      1534.8682     -38348.633      41.540883      1071012.9    
     48400   298.17645     -47727.953      1531.4622     -38296.771      15.04938       1071756.4    
     48500   299.58187     -47687.562      1539.6215     -38210.987      15.102868      1073707.5    
     48600   301.32795     -47652.749      1569.4283     -38100.107     -67.307343      1076380.8    
     48700   302.77163     -47555.716      1507.5335     -38026.72       17.715296      1076738.1    
     48800   302.58741     -47605.707      1551.7996     -38037.326     -7.9133184      1076734.9    
     48900   299.70817     -47566.749      1571.6448     -38054.804      17.468319      1075780.7    
     49000   298.54614     -47550.714      1563.3486     -38077.852     -2.3590909      1076166.8    
     49100   301.13644     -47547.587      1521.6109     -38047.836     -25.909599      1077259.5    
     49200   299.46736     -47400.559      1544.4864     -37922.152      34.946991      1077557.7    
     49300   305.95416     -47501.199      1579.4786     -37815.943      0.8010873      1077505.1    
     49400   300.95234     -47403.671      1535.4086     -37894.999      6.0218         1077347.4    
     49500   300.71405     -47564.57       1551.2212     -38046.399     -7.2400965      1076217.9    
     49600   298.37951     -47582.704      1600.0105     -38077.594      18.960846      1074979.8    
     49700   300.93778     -47620.809      1547.9334     -38099.998      15.526119      1075076.7    
     49800   299.29918     -47691.44       1583.4032     -38178.572      4.1727979      1075552.3    
     49900   299.42743     -47724.542      1511.7011     -38279.979     -10.991192      1074978.4    
     50000   297.99542     -47702.597      1532.4146     -38275.259      14.457992      1073785.1    
     50100   301.51462     -47631.292      1541.0077     -38102.125      45.705989      1072510.8    
     50200   300.05573     -47579.344      1564.7418     -38065.094      17.716375      1073992.8    
     50300   297.94334     -47625.093      1593.6542     -38137.895     -61.124969      1076555      
     50400   296.44469     -47572.249      1516.4278     -38201.982     -2.2436498      1075838      
     50500   300.25551     -47732.774      1537.6006     -38240.372     -4.0602496      1073416.8    
     50600   303.8803      -47854.954      1528.2496     -38275.87       4.8534479      1070737.6    
     50700   296.62193     -47744.953      1520.6248     -38365.793      43.300726      1070151      
     50800   298.99383     -47866.23       1555.9048     -38388.951     -48.796505      1071648.6    
     50900   298.29065     -47700.357      1547.2489     -38250.363      44.158822      1070951.6    
     51000   300.74616     -47689.26       1558.3078     -38163.152      52.309672      1071510      
     51100   299.7381      -47646.179      1530.2308     -38174.855     -14.771772      1074918.8    
     51200   296.14159     -47531.772      1542.7607     -38143.202     -30.210571      1077008.7    
     51300   304.7467      -47545.804      1528.09       -37943.925      34.317154      1075377.6    
     51400   303.42339     -47518.103      1531.3396     -37948.035      41.816601      1075398.5    
     51500   298.21681     -47535.5        1575.3137     -38059.397     -6.7613113      1077771.1    
     51600   300.7492      -47618.873      1536.746      -38114.246     -68.980866      1078082.5    
     51700   300.48626     -47622.233      1577.5228     -38083.796      25.362727      1074405      
     51800   304.13062     -47790.715      1577.9846     -38155.265      11.749894      1072109.3    
     51900   299.26325     -47844.816      1581.47       -38334.833     -11.104992      1072413.3    
     52000   298.88611     -47748.378      1501.5919     -38328.266      10.861354      1073215.1    
     52100   299.53722     -47675.123      1539.0637     -38200.288     -29.048786      1074958.2    
     52200   299.23711     -47606.591      1569.1251     -38109.645     -0.21940765     1075888.8    
     52300   300.77978     -47591.019      1550.7637     -38071.565     -6.5618265      1075723.9    
     52400   300.90545     -47560.764      1535.6677     -38053.076      18.46098       1075517      
     52500   297.50554     -47579.399      1571.9663     -38125.488     -14.285614      1075598      
     52600   295.97339     -47613.996      1479.6891     -38292.954      12.289981      1074036.2    
     52700   297.25948     -47703.257      1562.5072     -38265.324      48.694671      1071462.7    
     52800   302.8793      -47727.627      1545.9792     -38157.333      14.601412      1072090.3    
     52900   299.52753     -47596.647      1604.8211     -38056.311      2.0180582      1076776.3    
     53000   298.95982     -47424.805      1539.6385     -37964.693     -54.54936       1081897.5    
     53100   304.33556     -47355.116      1552.9066     -37739.313     -73.903044      1082262.9    
     53200   306.26159     -47444.9        1548.7115     -37782.265      13.515594      1077999      
     53300   303.50066     -47551.48       1536.1196     -37974.583      60.753189      1075542.3    
     53400   299.19594     -47601.292      1582.7585     -38091.804     -41.875646      1076907.5    
     53500   301.20715     -47605.826      1510.4909     -38115.322     -22.485601      1077562.6    
     53600   300.93864     -47590.628      1512.2497     -38105.479      12.363459      1076402.7    
     53700   303.71373     -47621.44       1510.8949     -38064.124      5.0514193      1075340.3    
     53800   303.22389     -47607.407      1549.9969     -38023.967      22.072971      1075403.2    
     53900   295.31137     -47490.457      1565.8759     -38100.767      22.509941      1076543.9    
     54000   296.46512     -47566.524      1560.4479     -38151.695     -15.551232      1077029.5    
     54100   300.96742     -47599.888      1562.3636     -38063.862      9.5511881      1075526.7    
     54200   304.43298     -47554.35       1528.6359     -37960.237      75.817402      1074080.7    
     54300   300.09397     -47527.525      1492.5704     -38084.433      9.1798789      1076171.8    
     54400   296.92453     -47559.2        1536.2725     -38156.376     -38.805649      1077405.6    
     54500   297.84617     -47607.787      1601.6481     -38115.169      5.7729749      1075389.3    
     54600   302.32817     -47690.661      1580.3853     -38100.562      16.991497      1074147.8    
     54700   298.20972     -47602.71       1541.7591     -38160.35      -5.3810898      1075400.4    
     54800   299.80073     -47732.223      1546.9037     -38242.567     -80.719375      1076081.5    
     54900   298.22734     -47725.117      1598.526      -38225.523     -3.338705       1072548.6    
     55000   307.21881     -47762.754      1511.17       -38112.301      80.002076      1070042.4    
     55100   302.72787     -47727.885      1550.4227     -38157.16       2.8273955      1073937.4    
     55200   295.08294     -47652.787      1556.9622     -38278.062     -88.319815      1079526.1    
     55300   298.19857     -47681.274      1607.8147     -38173.154     -66.328559      1077976.3    
     55400   303.83043     -47742.011      1581.9765     -38110.521      59.255307      1071222.7    
     55500   300.97923     -47776.681      1619.2017     -38183.504      74.731914      1069456      
     55600   294.7245      -47682.799      1552.7244     -38321.809      7.5022445      1073026.3    
     55700   298.15356     -47759.994      1603.1604     -38257.72      -67.731676      1076540.1    
     55800   299.09023     -47607.187      1569.72       -38113.538     -28.032481      1077358.3    
     55900   300.2451      -47543.129      1560.4626     -38028.141     -4.8988084      1076914.3    
     56000   303.33772     -47628.423      1590.0578     -38001.905     -5.2303659      1075045.2    
     56100   298.38709     -47610.605      1586.4962     -38118.808      41.307         1073136.2    
     56200   296.38206     -47646.481      1553.9438     -38240.357      8.8713003      1073771      
     56300   298.70687     -47654.467      1500.6296     -38240.065     -2.7316524      1075200.8    
     56400   296.97925     -47607.17       1584.7764     -38154.392      1.0902352      1075612.1    
     56500   297.80189     -47596.851      1617.3244     -38089.73       2.2439819      1075413      
     56600   299.60519     -47579.961      1576.8336     -38065.556      2.2276221      1075859.7    
     56700   301.76183     -47543.921      1532.3425     -38016.87      -27.172206      1076718.6    
     56800   303.84614     -47487.386      1572.4864     -37864.971     -1.1624006      1076693.1    
     56900   306.17965     -47462.35       1556.7007     -37793.897      27.853802      1077178.7    
     57000   301.82333     -47457.083      1524.6302     -37936.114     -21.118376      1078708.9    
     57100   298.93415     -47490.177      1564.9659     -38005.417     -17.241744      1078797.9    
     57200   301.93467     -47570.977      1567.9512     -38003.738     -16.431353      1077736.1    
     57300   301.40676     -47542.977      1543.7154     -38013.96       9.5663147      1076127      
     57400   296.53271     -47544.898      1538.9575     -38149.77      -11.05327       1076073.7    
     57500   294.06294     -47589.306      1561.7366     -38236.83       8.7878075      1074522.4    
     57600   304.1088      -47781.775      1557.1773     -38167.709      21.952102      1070976.3    
     57700   303.19505     -47684.697      1607.4621     -38044.556      86.21556       1070297.9    
     57800   299.77193     -47590.18       1549.676      -38098.515      14.232522      1074755.2    
     57900   297.05745     -47596.34       1517.3369     -38208.93      -74.633742      1078599      
     58000   300.5237      -47580.283      1543.7        -38074.677     -2.0771538      1077254.6    
     58100   303.77954     -47583.147      1540.9548     -37994.027      31.596209      1074719.1    
     58200   299.70357     -47596.816      1551.3586     -38105.279     -7.8493868      1074668.3    
     58300   297.16787     -47617.499      1546.3082     -38198.191      5.1039025      1074518.9    
     58400   298.64095     -47683.445      1537.9008     -38233.519      3.5792544      1073901.4    
     58500   299.07068     -47778.959      1532.1707     -38323.377      1.8782177      1072317.3    
     58600   298.97701     -47909.297      1505.4396     -38482.928      13.147338      1070803.1    
     58700   300.13372     -47989.702      1519.3443     -38518.783      18.974845      1069566.9    
     58800   295.54032     -47771.388      1576.246      -38365.262      21.195887      1070676.4    
     58900   300.14289     -47765.057      1559.725      -38253.514     -36.300501      1072713.3    
     59000   297.75565     -47624.647      1540.5635     -38195.512      19.123085      1073496.7    
     59100   301.35232     -47642.959      1530.6171     -38128.482      20.044614      1074649.7    
     59200   301.63726     -47632.648      1572.0899     -38069.15      -30.584916      1076273.3    
     59300   301.72235     -47553.354      1544.2456     -38015.446     -12.940364      1077240.7    
     59400   299.8416      -47455.697      1545.694      -37966.168      9.1720999      1077221.4    
     59500   300.81668     -47516.137      1583.7308     -37962.737      29.175133      1076167.6    
     59600   297.33588     -47581.412      1599.7925     -38104.169     -11.663384      1075481      
     59700   298.37482     -47695.838      1586.4195     -38204.443      28.74266       1074274.9    
     59800   298.51776     -47652.581      1532.9419     -38210.877      3.5390267      1074571.1    
     59900   299.98783     -47663.89       1583.9064     -38132.274     -8.5114609      1075317.1    
     60000   304.178       -47555.31       1546.1978     -37950.391      11.938936      1076853      
     60100   302.25714     -47480.581      1526.9969     -37945.752     -34.69453       1078561.2    
     60200   299.35949     -47515.541      1574.7222     -38009.756     -26.67921       1078343.3    
     60300   299.31402     -47536.442      1517.3749     -38089.209      9.902839       1076893.9    
     60400   300.10843     -47640.22       1556.2419     -38133.074      0.27965311     1075207.3    
     60500   304.44609     -47730.724      1512.6181     -38152.282      28.81448       1073462.7    
     60600   301.79147     -47718.687      1504.4819     -38218.711      26.406651      1074059      
     60700   294.26378     -47626.185      1550.1193     -38280.006     -14.884209      1076660.5    
     60800   299.25644     -47710.076      1604.0502     -38177.694     -36.733537      1076673.2    
     60900   306.7798      -47704.981      1551.1123     -38026.217      3.5658693      1074479.8    
     61000   300.26799     -47601.279      1554.5621     -38091.585      42.296528      1074579.3    
     61100   297.38203     -47623.435      1559.2997     -38185.463     -11.802871      1076422.5    
     61200   298.91132     -47687.534      1560.5692     -38207.775     -26.356969      1076361.2    
     61300   299.13416     -47564.175      1554.2745     -38084.808      32.763151      1073746.8    
     61400   305.91414     -47650.923      1567.2741     -37978.931      79.819932      1072601.2    
     61500   301.29131     -47665.285      1580.4176     -38102.624     -36.68782       1077286.8    
     61600   297.23577     -47507.652      1506.3091     -38126.544     -60.820465      1080743.7    
     61700   300.44793     -47573.502      1542.1439     -38071.459     -33.984794      1078028.4    
     61800   301.56419     -47626.779      1607.6852     -38029.621      53.442012      1073042.3    
     61900   302.1073      -47758.957      1550.035      -38205.06       64.295693      1072317.3    
     62000   295.27776     -47610.666      1502.9332     -38284.809      9.9155612      1076111.7    
     62100   296.05535     -47515.036      1500.4135     -38171.098     -25.015971      1079713.2    
     62200   299.38175     -47487.566      1544.422      -38011.491     -9.1136796      1079575.9    
     62300   302.68601     -47533.928      1581.3258     -37933.409      0.98753045     1077791.4    
     62400   303.30707     -47584.099      1558.0928     -37990.359      23.604409      1076080.8    
     62500   299.23002     -47623.237      1567.0334     -38128.571      18.486101      1076058.6    
     62600   299.71871     -47665.615      1544.2463     -38180.789     -10.795736      1076061.5    
     62700   300.01385     -47689.42       1563.6314     -38177.39       22.334061      1074647.3    
     62800   300.11193     -47654.914      1526.5705     -38177.346      33.33974       1074001.4    
     62900   296.54725     -47637.635      1591.2337     -38189.844      2.2274569      1074969.9    
     63000   299.77838     -47602.52       1588.5724     -38071.787     -0.32063806     1076308.1    
     63100   299.25224     -47468.103      1608.4391     -37931.443      7.495754       1078367      
     63200   301.98497     -47491.667      1550.4379     -37940.608     -29.923345      1079723.4    
     63300   301.81407     -47535.406      1541.3628     -37997.95      -11.438817      1078712.4    
     63400   299.71416     -47631.777      1581.4388     -38109.879     -18.758447      1076604.1    
     63500   300.80827     -47758.876      1562.7345     -38226.695     -12.362553      1074586.7    
     63600   298.92747     -47777.256      1567.5193     -38290.12       31.690992      1073555.7    
     63700   293.9059      -47675.241      1571.6771     -38316.986     -12.638106      1074760.1    
     63800   298.2532      -47638.76       1577.4494     -38159.557     -11.268904      1075528.3    
     63900   301.3032      -47619.82       1601.4315     -38035.831      28.957577      1075079.1    
     64000   303.88421     -47657.766      1571.2088     -38035.619     -3.0458007      1075499.5    
     64100   295.98325     -47535.371      1558.7836     -38134.973     -30.832746      1077329.9    
     64200   299.39866     -47651.353      1545.1883     -38174.065     -19.999091      1075517.7    
     64300   304.08056     -47702.526      1559.4088     -38086.978      91.482137      1071678.4    
     64400   305.34898     -47690.603      1566.0701     -38034.788      21.716491      1073867      
     64500   295.54443     -47544.17       1559.4914     -38154.69      -62.596146      1077971.8    
     64600   298.70217     -47604.869      1541.3417     -38149.88      -26.474812      1076206.5    
     64700   302.59928     -47641.805      1618.1639     -38006.745      50.18068       1072119.3    
     64800   298.19731     -47513.1        1570.7704     -38042.057      79.449462      1073037.9    
     64900   298.7018      -47539.747      1542.3561     -38083.752      2.2021274      1077518.2    
     65000   299.36055     -47545.895      1572.2143     -38042.59      -51.629387      1079354.9    
     65100   301.40344     -47429.605      1530.9608     -37913.43       25.075296      1076881.1    
     65200   305.59927     -47526.406      1536.0601     -37893.97       46.737491      1075229.4    
     65300   300.10869     -47477.496      1561.0832     -37965.501     -1.7569538      1076934.9    
     65400   299.71808     -47508.721      1586.9015     -37981.257     -42.976526      1078406.2    
     65500   297.97384     -47396.566      1554.5663     -37947.648      10.173497      1077752.3    
     65600   304.28261     -47458.256      1522.5068     -37874.256      37.259084      1076792.7    
     65700   307.6526      -47569.299      1630.4003     -37788.123     -15.564589      1077644.9    
     65800   301.08348     -47427.253      1556.9736     -37893.543     -31.414858      1079546.8    
     65900   297.81548     -47545.971      1615.6406     -38040.174     -15.797437      1078588.1    
     66000   300.99997     -47645.749      1604.3492     -38066.875     -28.104493      1075488.7    
     66100   305.02024     -47677.579      1528.3735     -38068.17       36.348616      1073227.5    
     66200   299.59663     -47728.104      1543.1453     -38247.614      10.916006      1073587.4    
     66300   296.03642     -47711.912      1561.4877     -38307.401     -17.69209       1075118.2    
     66400   299.85852     -47704.212      1527.7466     -38232.182     -20.847606      1075119.7    
     66500   302.98128     -47694.999      1534.8996     -38133.083     -12.837454      1075156.4    
     66600   300.1708      -47582.3        1538.1889     -38091.554     -1.0447136      1076059.6    
     66700   299.94046     -47573.933      1543.6713     -38083.807     -20.834489      1076618.3    
     66800   300.72964     -47639.694      1588.5263     -38083.805     -1.2079875      1076145.9    
     66900   303.70239     -47713.681      1553.5374     -38114.022     -14.773506      1075481.4    
     67000   298.58763     -47673.74       1578.6628     -38184.464     -3.5755747      1074750.9    
     67100   299.97305     -47727.879      1569.6291     -38210.932      12.038995      1073057.7    
     67200   299.37468     -47745.385      1552.3505     -38261.57       33.484701      1072079.7    
     67300   300.66047     -47836.515      1547.5069     -38323.478     -5.4927968      1072511      
     67400   299.05921     -47796.377      1542.9516     -38330.319     -9.9597811      1072488.7    
     67500   300.55365     -47875.032      1615.9842     -38296.348      1.7057587      1072514      
     67600   298.92286     -47771.603      1579.5058     -38272.602      5.7017516      1074072.1    
     67700   298.20161     -47612.898      1518.2063     -38194.305      23.73356       1076194.1    
     67800   300.69254     -47588.859      1565.3861     -38057.093     -20.945405      1077207      
     67900   296.96012     -47482.531      1580.3912     -38034.645      34.131289      1076882.8    
     68000   301.6917      -47559.643      1512.6257     -38054.167     -1.9058364      1075782.3    
     68100   299.95827     -47677.79       1559.6944     -38171.169      16.363684      1073541.3    
     68200   296.12874     -47657.996      1521.0296     -38291.497      34.74562       1072980.5    
     68300   297.87711     -47731.778      1547.7629     -38292.226     -0.43539949     1073863.8    
     68400   297.18599     -47640.96       1537.7721     -38229.709      24.383121      1074410.3    
     68500   300.68125     -47682.703      1556.7876     -38159.835      31.350704      1074180.6    
     68600   298.34019     -47576.287      1544.8847     -38127.344      34.885801      1074670.2    
     68700   299.97586     -47634.051      1501.1444     -38185.514     -6.1859081      1075913.1    
     68800   299.69356     -47660.442      1483.3497     -38237.179     -39.095509      1076259.1    
     68900   296.41566     -47579.23       1559.1967     -38166.963      77.35754       1074295.1    
     69000   304.19424     -47631.123      1531.993      -38039.978      35.893538      1074938.9    
     69100   299.14424     -47503.831      1527.1529     -38051.318     -10.019653      1078758.1    
     69200   296.95206     -47489.442      1575.9951     -38046.165     -85.564088      1081161.4    
     69300   304.33226     -47419.722      1524.9629     -37831.951      50.183787      1078634.6    
     69400   302.56653     -47388.428      1535.3196     -37837.08       38.260027      1078118.4    
     69500   300.666       -47476.586      1544.2065     -37966.703     -38.211369      1079436.7    
     69600   300.48918     -47552.34       1542.3777     -38048.97      -38.682189      1078606.7    
     69700   300.98431     -47592.055      1553.105      -38064.84       22.160761      1075476.3    
     69800   303.59436     -47725.879      1528.0612     -38154.559      25.969363      1072908.7    
     69900   296.58096     -47723.573      1527.7928     -38338.33      -7.3070461      1072053.9    
     70000   299.14693     -47794.552      1547.4189     -38321.702      20.302549      1070949.5    
     70100   299.35495     -47725.65       1548.6721     -38246.036      32.397167      1071978.5    
     70200   299.87405     -47645.456      1590.8143     -38109.947     -23.251276      1075071      
     70300   300.52682     -47568.421      1550.1144     -38056.317      3.9364364      1076861.3    
     70400   298.56062     -47522.248      1566.3943     -38045.956     -13.429552      1076801.8    
     70500   303.36614     -47682.628      1545.1704     -38100.244      15.562246      1074652.3    
     70600   299.19305     -47722.522      1515.7168     -38280.152      18.664962      1073552.8    
     70700   298.97698     -47776.246      1531.3902     -38323.927     -17.144317      1073720.9    
     70800   300.49938     -47748.568      1523.5416     -38263.765      22.290289      1073681.9    
     70900   304.49626     -47791.344      1548.7804     -38175.41      -34.49142       1074641.7    
     71000   301.04675     -47631.936      1561.8118     -38094.36      -18.560491      1076123.7    
     71100   305.66299     -47578.744      1497.6819     -37982.998     -14.955979      1077555.7    
     71200   303.67843     -47463.755      1578.8066     -37839.462      12.772345      1079528.2    
     71300   300.6391      -47337.13       1526.6451     -37845.521     -42.329876      1081485.6    
     71400   299.26703     -47437.952      1514.8251     -37994.514     -5.2772095      1080440.9    
     71500   298.61431     -47592.992      1532.4224     -38149.249     -6.4507385      1076555.3    
     71600   301.053       -47705.657      1585.0247     -38144.703      21.902544      1072306.2    
     71700   298.41621     -47698.313      1571.1012     -38221.14       47.041971      1070983      
     71800   297.04891     -47695.196      1501.5151     -38323.834      22.810444      1073626.8    
     71900   300.98785     -47748.944      1520.3253     -38254.415     -37.072203      1076574.1    
     72000   296.54777     -47480.177      1568.8614     -38054.745     -9.6486797      1077116.5    
     72100   299.9239      -47527.011      1590.9744     -37990.021      30.416197      1076314.2    
     72200   299.25978     -47491.162      1590.3761     -37972.365      41.113659      1076898.7    
     72300   301.87159     -47595.575      1528.0216     -38069.936     -20.440866      1078123.5    
     72400   296.48986     -47623.802      1586.5143     -38182.251     -44.0808        1077634.3    
     72500   298.11125     -47623.91       1529.7565     -38196.161      59.513099      1073914.7    
     72600   302.16789     -47711.365      1609.7703     -38096.128      22.638194      1072917.2    
     72700   303.80322     -47569.574      1592.7484     -37928.033      17.882379      1075417      
     72800   296.42685     -47406.5        1580.6835     -37972.45      -17.291383      1079565.5    
     72900   297.7023      -47508.397      1561.7014     -38059.538     -65.967117      1080129.2    
     73000   300.86035     -47656.327      1557.2911     -38128.211      9.056013       1075621.7    
     73100   299.5005      -47797.7        1518.9653     -38343.937      36.620964      1070742.2    
     73200   300.55453     -47924.769      1576.7054     -38385.34       45.645878      1069239.1    
     73300   294.24124     -47679.32       1508.5234     -38375.334      31.094215      1072032.7    
     73400   300.90969     -47686.646      1501.2723     -38213.241     -49.5203        1075362.6    
     73500   300.95463     -47575.216      1502.861      -38099.032     -22.478952      1076110.2    
     73600   302.16167     -47546.122      1506.5467     -38034.273      1.7300847      1075599.8    
     73700   302.07725     -47665.197      1590.996      -38071.135     -10.411084      1075260.7    
     73800   302.14808     -47753.91       1515.5875     -38233.381     -32.087458      1075046.1    
     73900   298.87665     -47765.007      1566.8978     -38279.839      6.3038163      1073721      
     74000   300.713       -47797.963      1586.8305     -38244.211     -7.001108       1073035.5    
     74100   302.04014     -47718.113      1518.1532     -38197.878      12.061973      1074593.9    
     74200   301.29938     -47632.841      1571.1915     -38079.193     -23.768831      1077334.7    
     74300   304.71943     -47552.299      1577.1394     -37902.094     -62.874715      1079670      
[...]
    482300   301.24535     -47594.392      1582.8401     -38030.526     -0.010352233    1075179.4    
    482400   301.37576     -47575.895      1616.0706     -37975.344      32.928175      1075202.1    
    482500   304.13084     -47471.849      1572.2483     -37842.128      40.357649      1076738.2    
    482600   302.22028     -47437.832      1569.1485     -37861.829     -35.449994      1079537.2    
    482700   299.3249      -47441.891      1551.0016     -37960.743     -58.378625      1080046.6    
    482800   297.83811     -47511.536      1561.9911     -38058.789      21.693075      1075854      
    482900   301.01634     -47712.739      1551.8811     -38185.899      92.391505      1070751.2    
    483000   298.90383     -47787.851      1553.3757     -38315.485      25.991055      1070940.3    
    483100   293.65467     -47653.616      1572.0966     -38301.597     -1.365388       1073381.2    
    483200   297.82477     -47701.039      1607.6726     -38202.964     -42.006004      1073949.1    
    483300   305.73513     -47702.467      1491.3954     -38111.096      28.394275      1072337.4    
    483400   300.31603     -47606.302      1556.5881     -38093.309      21.310824      1073262.1    
    483500   300.3076      -47559.323      1571.079      -38032.063     -2.8188663      1075572.2    
    483600   301.86703     -47443.473      1564.5148     -37881.462      16.924812      1076707.5    
    483700   303.71589     -47490.04       1548.1498     -37895.412     -19.343586      1076867.5    
    483800   298.81958     -47511.091      1546.8042     -38047.528     -12.853951      1076590.7    
    483900   298.25921     -47549.353      1532.9547     -38114.486      26.261594      1075189.6    
    484000   300.26416     -47627.782      1541.1347     -38131.617      42.034653      1074608      
    484100   296.46378     -47621.36       1587.9498     -38179.065      8.6679612      1075220.5    
    484200   299.097       -47696.839      1561.6295     -38211.101      5.5637467      1075439.6    
    484300   300.29692     -47704.726      1554.4652     -38194.362     -5.7821111      1075415      
    484400   302.77339     -47766.839      1601.1629     -38144.168     -9.3443643      1075208.4    
    484500   298.76223     -47669.22       1604.0633     -38149.917     -13.644017      1075958.6    
    484600   298.44602     -47662.398      1575.5651     -38179.972     -10.819335      1076598.5    
    484700   300.52655     -47666.11       1562.521      -38141.607     -11.607035      1075964.1    
    484800   299.8726      -47541.145      1595.1266     -38001.362      24.970948      1075456.7    
    484900   300.84585     -47546.535      1618.714      -37957.379      26.184593      1076575.9    
    485000   298.23491     -47519.041      1588.672      -38029.1       -32.328492      1078724.4    
    485100   293.8653      -47482.666      1527.6965     -38169.467     -49.990076      1079171.5    
    485200   296.6222      -47718.26       1601.0397     -38258.677     -32.763226      1076431.5    
    485300   302.23843     -47766.155      1536.0283     -38222.791      62.852948      1071520      
    485400   306.16416     -47901.011      1604.0026     -38185.667      34.27733       1069683.3    
    485500   301.83714     -47855.355      1562.7063     -38295.945      13.40602       1072084.9    
    485600   297.48788     -47755.047      1500.5418     -38373.028     -62.757597      1075277.9    
    485700   296.52037     -47660.29       1546.5848     -38257.861      13.236329      1074810.9    
    485800   298.83942     -47625.998      1538.8244     -38169.889      46.284543      1074027.1    
    485900   298.48206     -47596.815      1541.6376     -38147.36       10.602415      1074939.8    
    486000   299.23316     -47576.925      1552.1331     -38097.076      5.0494861      1075654.6    
    486100   297.79997     -47450.245      1591.4259     -37969.074      15.163189      1076198.2    
    486200   305.76257     -47596.059      1601.6029     -37893.754     -6.6219715      1076942.3    
    486300   301.01951     -47532.619      1560.1109     -37997.465     -32.653074      1078227.4    
    486400   295.35467     -47564.2        1553.8312     -38185.408     -11.565713      1076490.3    
    486500   297.62539     -47592.84       1557.0652     -38150.654      22.972854      1073542.8    
    486600   302.11871     -47701.856      1588.4591     -38109.233      45.573285      1072218.8    
    486700   299.14268     -47605.977      1531.5258     -38149.133      11.397834      1073489.1    
    486800   297.88253     -47691.129      1533.6375     -38265.559     -24.683461      1074886.9    
    486900   297.98546     -47740.555      1508.3787     -38337.517      4.3436485      1073488.4    
    487000   301.07336     -47802.113      1619.8136     -38205.83       37.3354        1072080.3    
    487100   301.92271     -47642.671      1548.09       -38095.61       53.980308      1073622.9    
    487200   297.56857     -47548.857      1573.9737     -38091.268     -23.12755       1077816.6    
    487300   300.40598     -47553.238      1542.6778     -38051.772     -46.935254      1079249.2    
    487400   300.57693     -47558.809      1602.8856     -37992.606     -3.2658677      1076762.2    
    487500   301.36593     -47537.679      1573.1488     -37980.31       62.562474      1074205.1    
    487600   302.81293     -47683.365      1616.7435     -38044.066      7.0176739      1074170.4    
    487700   296.18315     -47526.337      1527.4254     -38152.001      28.741535      1075143.9    
    487800   301.11512     -47729.835      1553.3667     -38198.893     -53.787686      1074592.8    
    487900   297.78171     -47641.304      1571.8369     -38180.205      27.768101      1072204.8    
    488000   305.41037     -47692.09       1556.7395     -38043.979      45.856537      1071658.5    
    488100   304.70315     -47592.335      1524.9314     -37994.769      8.6866501      1075222.3    
    488200   299.0217      -47597.513      1565.9182     -38109.481     -90.345689      1079218.9    
    488300   295.05074     -47565.455      1538.1937     -38210.353     -39.578208      1077402.6    
    488400   305.13964     -47716.079      1557.7983     -38074.082      26.825201      1072236.4    
    488500   301.61713     -47610.849      1637.3806     -37982.593      91.743943      1070317.4    
    488600   302.46421     -47593.431      1483.4412     -38096.673     -5.820743       1074558.2    
    488700   297.4864      -47532.504      1527.2783     -38123.788     -28.254973      1077995      
    488800   299.46587     -47588.566      1611.5419     -38043.143     -50.290149      1077577.3    
    488900   304.97725     -47697.599      1609.6217     -38008.081      7.5738203      1074172.7    
    489000   300.27024     -47597.559      1557.195      -38085.173      47.137164      1073734.8    
    489100   295.14476     -47568.376      1590.4741     -38158.502      18.970641      1076493      
    489200   298.23841     -47585.575      1541.5811     -38142.633     -20.978101      1078663.4    
    489300   300.01657     -47543.789      1520.279      -38075.039     -35.294659      1078302      
    489400   304.62217     -47646.651      1582.5568     -37993.605     -4.2260963      1076049.1    
    489500   301.19285     -47630.779      1590.7703     -38060.374      7.4597455      1074640      
    489600   299.54918     -47734.694      1581.099      -38217.507     -0.59231308     1073761.5    
    489700   296.98617     -47643.035      1542.6277     -38232.223      56.156625      1073263.1    
    489800   295.98116     -47614.071      1592.3372     -38180.175      28.725391      1074184.9    
    489900   299.26192     -47603.469      1610.5413     -38064.45       7.3961352      1075430.7    
    490000   299.52403     -47480.447      1564.9299     -37980.096      26.698999      1075681.4    
    490100   299.94942     -47473.047      1582.7718     -37943.583     -4.0847182      1076307.2    
    490200   302.45929     -47547.105      1524.2251     -38009.693      23.658714      1076330.1    
    490300   299.41225     -47601.584      1562.9348     -38106.188     -19.544642      1076518.7    
    490400   301.51405     -47696.19       1567.803      -38140.242     -22.587505      1075349.2    
    490500   299.06391     -47655.602      1544.1099     -38188.261      48.743402      1073021.3    
    490600   298.51003     -47784.395      1592.6738     -38283.163      21.92612       1071695.3    
    490700   297.01045     -47748.586      1521.2255     -38358.532      22.012069      1072575.9    
    490800   296.66179     -47671.464      1500.9614     -38310.911      3.0386067      1074567.4    
    490900   298.20137     -47531.758      1521.7926     -38109.586      10.559756      1076355.7    
    491000   299.48622     -47599.003      1607.3297     -38057.253     -41.578008      1077691.7    
    491100   298.61374     -47502.594      1558.4589     -38032.829      41.196883      1077184.3    
    491200   300.57182     -47582.222      1553.9081     -38065.133     -9.7807468      1076474.4    
    491300   298.98249     -47641.151      1568.773      -38151.303      22.193808      1075797.3    
    491400   295.797       -47647.031      1564.008      -38246.343      4.2779561      1076113.6    
    491500   297.87226     -47677.823      1520.8436     -38265.319      26.576258      1075737      
    491600   300.12831     -47613.103      1547.3609     -38114.311      36.065021      1075416.4    
    491700   299.7171      -47485.995      1526.4313     -38019.027      44.067502      1075967.4    
    491800   299.3623      -47516.79       1563.0492     -38022.604     -15.093896      1078637      
    491900   297.8606      -47440.371      1555.2567     -37993.762      1.5335428      1080180.2    
    492000   304.07836     -47451.427      1593.5067     -37801.838     -0.62123376     1079296.1    
    492100   306.13405     -47552.122      1610.5132     -37831.065     -5.8439368      1077811.4    
    492200   301.34331     -47518.025      1557.6186     -37976.785      30.345755      1078204      
    492300   295.11228     -47442.347      1591.0295     -38032.779     -1.6896358      1078828.3    
    492400   299.32244     -47525.225      1600.0072     -37995.137     -3.6384541      1077613.1    
    492500   300.63319     -47554.616      1619.4151     -37970.393      2.930062       1076373.5    
    492600   300.11144     -47621.788      1576.4952     -38094.308     -26.077966      1076516.4    
    492700   297.72651     -47642.424      1550.4622     -38204.162     -4.2823191      1075736.2    
    492800   296.80673     -47586.422      1529.3515     -38193.639      56.141663      1073867.1    
    492900   298.88284     -47552.18       1552.9495     -38080.796      86.247897      1073594      
    493000   300.78161     -47464.373      1555.9942     -37939.639     -26.682975      1077883.8    
    493100   302.08552     -47425.685      1608.2737     -37814.126     -51.616253      1080544.7    
    493200   301.65027     -47332.762      1559.2512     -37781.757      38.33215       1078585.8    
    493300   301.69129     -47522.734      1547.0457     -37982.848      19.205746      1076207.4    
    493400   302.1872      -47676          1570.7613     -38099.26      -0.24739311     1074377.2    
    493500   294.28483     -47468.913      1534.124      -38138.172      48.247932      1075053.8    
    493600   299.77791     -47530.746      1533.0469     -38055.551     -29.613842      1077251.8    
    493700   300.50839     -47464.483      1583.7309     -37919.251      5.8064318      1077721      
    493800   301.95944     -47475.333      1593.4953     -37881.893      3.0828396      1078264.2    
    493900   298.93842     -47375.026      1551.8404     -37903.279     -2.7871134      1079695.7    
    494000   297.20572     -47407.075      1614.6905     -37918.382     -9.6765728      1080283.1    
    494100   302.36861     -47310.018      1573.2176     -37726.016      19.963732      1080754.4    
    494200   304.61688     -47327.879      1597.8941     -37659.636     -36.590134      1082572.7    
    494300   300.62824     -47318.416      1574.3651     -37779.375     -3.8733905      1082413.6    
    494400   301.41585     -47407.962      1535.317      -37887.103     -38.493874      1080274.3    
    494500   297.66192     -47447.852      1605.0717     -37956.692      62.809307      1076415.6    
    494600   302.42374     -47568.271      1538.7451     -38017.28       85.362776      1074422.5    
    494700   294.0035      -47525.585      1559.5441     -38176.877      7.1792781      1076774.9    
    494800   293.2162      -47552.521      1564.0227     -38220.192     -39.609992      1077688.4    
    494900   306.23153     -47669.327      1585.1401     -37971.06       15.248288      1074710.6    
    495000   305.80526     -47687.838      1614.7817     -37971.223      2.6785637      1074603.4    
    495100   297.04398     -47518.669      1575.7136     -38073.239     -37.60989       1078714.1    
    495200   297.24474     -47488.91       1518.1708     -38095.703     -35.347         1079597.8    
    495300   304.94745     -47596.299      1544.1529     -37973.039      21.67652       1075406.7    
    495400   304.3145      -47628.916      1596.4878     -37970.091      67.821284      1073567.9    
    495500   296.04632     -47523.669      1553.6747     -38126.709      0.55695526     1076453      
    495600   297.41305     -47557.565      1556.8129     -38121.257     -26.786869      1078276.7    
    495700   298.1951      -47454.703      1541.7263     -38012.763      16.138189      1076862.8    
    495800   304.71489     -47551.298      1521.6631     -37956.689      26.04984       1075053.4    
    495900   299.97413     -47633.422      1589.6383     -38096.437      18.156234      1075383.2    
    496000   297.3127      -47592.679      1560.9451     -38154.898     -24.872483      1076855.2    
    496100   299.48239     -47562.163      1534.5192     -38093.325     -7.6795904      1075679.3    
    496200   302.81295     -47594.58       1575.9337     -37996.089      32.211636      1074041.7    
    496300   300.62628     -47564.286      1568.1286     -38031.533      37.44384       1074599.1    
    496400   295.93914     -47610.289      1576.1363     -38193.707     -57.765389      1077585.1    
    496500   297.90155     -47650.143      1550.4        -38207.307     -36.634146      1077850.1    
    496600   297.07781     -47625.79       1595.8586     -38159.319      21.999609      1075054.5    
    496700   305.2463      -47783.655      1572.4149     -38124.216      1.3911435      1073263.7    
    496800   300.59171     -47751.908      1577.1324     -38211.067     -26.040346      1072930      
    496900   298.1802      -47770.244      1549.3462     -38321.079      31.864779      1072282      
    497000   299.02628     -47817.378      1553.1101     -38342.033      27.964281      1072012.2    
    497100   297.29935     -47650.561      1592.5685     -38181.51       24.451012      1072889.6    
    497200   300.52821     -47610.566      1582.1799     -38066.36       12.790103      1074553.7    
    497300   301.72033     -47621.114      1564.5956     -38062.909     -32.339104      1077638.3    
    497400   299.05822     -47515.666      1588.8299     -38003.755     -19.970789      1079789.2    
    497500   301.56872     -47464.548      1602.5201     -37872.435      9.2332075      1079508.5    
    497600   304.45262     -47532.192      1625.2104     -37840.985     -36.726747      1078931.8    
    497700   298.59871     -47518.985      1566.0834     -38041.994      9.5823294      1078246.1    
    497800   299.5254      -47632.798      1576.0888     -38121.252     -31.789952      1076833.5    
    497900   300.07274     -47579.148      1547.4913     -38081.697      39.634378      1074059.6    
    498000   302.215       -47610.091      1556.7948     -38046.581      36.100961      1074578.6    
    498100   296.08125     -47438.09       1541.0691     -38052.81       17.560347      1077589      
    498200   298.71995     -47429.606      1589.7791     -37925.708     -21.433636      1078548.3    
    498300   303.86578     -47431.623      1555.2221     -37825.952      1.1122731      1077539.7    
    498400   300.80219     -47446.949      1594.7551     -37882.909      28.583238      1076635.3    
    498500   295.9011      -47412.722      1552.1869     -38021.097     -11.764496      1077154      
    498600   300.03279     -47538.461      1553.4738     -38036.086     -19.689115      1076632      
    498700   304.26403     -47623.958      1544.0302     -38018.927     -12.443838      1074743.5    
    498800   301.03167     -47611.108      1577.1422     -38058.601      51.987926      1073308.9    
    498900   297.82378     -47611.932      1502.5828     -38218.973     -9.8907124      1074230.2    
    499000   298.30658     -47700.7        1544.7361     -38252.796     -52.475398      1075234.5    
    499100   298.76062     -47652.139      1572.8692     -38164.073      1.7454978      1073730.1    
    499200   301.77272     -47695.777      1577.1704     -38123.609      73.691572      1071970.6    
    499300   299.93441     -47725.33       1590.7657     -38188.27      -1.5748004      1073830      
    499400   296.59596     -47636.834      1548.7003     -38230.287     -49.091936      1076433.6    
    499500   298.31357     -47621.889      1631.2313     -38087.305      13.070959      1075817.9    
    499600   301.97294     -47631.75       1660.4832     -37970.965     -0.74000979     1075365.7    
    499700   303.45576     -47571.528      1534.3803     -37997.561     -3.8526295      1076464.6    
    499800   298.18424     -47551.466      1559.375      -38092.165     -45.279012      1077944.3    
    499900   298.43142     -47653.419      1596.4392     -38150.505     -43.520551      1077007.5    
    500000   298.85044     -47661.594      1581.1638     -38162.854      80.967069      1074003.3    
Loop time of 1570.82 on 8 procs for 500000 steps with 8889 atoms

Performance: 550.030 ns/day, 0.044 hours/ns, 318.304 timesteps/s, 2.829 Matom-step/s
99.9% CPU use with 8 MPI tasks x 1 OpenMP threads

MPI task timing breakdown:
Section |  min time  |  avg time  |  max time  |%varavg| %total
---------------------------------------------------------------
Pair    | 363.42     | 372.6      | 386.95     |  41.9 | 23.72
Bond    | 9.3323     | 9.988      | 10.643     |  11.4 |  0.64
Kspace  | 183.47     | 198.4      | 208.34     |  59.9 | 12.63
Neigh   | 851.07     | 851.7      | 852.13     |   1.3 | 54.22
Comm    | 77.869     | 78.33      | 78.986     |   4.2 |  4.99
Output  | 0.17381    | 0.18416    | 0.22423    |   3.6 |  0.01
Modify  | 49.345     | 51.177     | 51.816     |  10.0 |  3.26
Other   |            | 8.449      |            |       |  0.54

Nlocal:        1111.12 ave        1134 max        1099 min
Histogram: 2 1 1 0 3 0 0 0 0 1
Nghost:        2488.88 ave        2510 max        2476 min
Histogram: 3 1 0 0 2 0 0 0 1 1
Neighs:        34800.9 ave       35657 max       34158 min
Histogram: 1 1 1 1 0 3 0 0 0 1

Total # of neighbors = 278407
Ave neighs/atom = 31.320396
Ave special neighs/atom = 0.67499156
Neighbor list builds = 500000
Dangerous builds = 500000

write_data end-cont3.data
System init for write_data ...
PPPM initialization ...
  using 12-bit tables for long-range coulomb (src/kspace.cpp:342)
  G vector (1/distance) = 0.14974436
  grid = 18 18 18
  stencil order = 4
  estimated absolute RMS force accuracy = 0.0027470603
  estimated relative force accuracy = 8.2726906e-06
  using double precision KISS FFT
  3d grid and FFT values/proc = 2744 972
Generated 0 of 6 mixed pair_coeff terms from geometric mixing rule
Total wall time: 0:26:10
