
units real
dimension 3
boundary p p p
neighbor 0.3 bin
neigh_modify every 1 check yes

atom_style full
bond_style harmonic
angle_style cosine/squared
special_bonds lj/coul 0 1 1




# pair_style lj/gromacs/coul/gromacs 9 12 0.000001 12
pair_style lj/cut/coul/long 12
pair_modify shift yes

read_data end.data
Reading data file ...
  orthogonal box = (-3.2615518 -3.2615518 -3.2615518) to (98.261552 98.261552 98.261552)
  2 by 2 by 2 MPI processor grid
  reading atoms ...
  8889 atoms
  reading velocities ...
  8889 velocities
  scanning bonds ...
  1 = max bonds/atom
  scanning angles ...
  1 = max angles/atom
  reading bonds ...
  3000 bonds
  reading angles ...
  2000 angles
Finding 1-2 1-3 1-4 neighbors ...
  special bond factors lj:    0        1        1       
  special bond factors coul:  0        1        1       
     2 = max # of 1-2 neighbors
     2 = max # of special neighbors
  special bonds CPU = 0.001 seconds
  read_data CPU = 0.060 seconds

kspace_style pppm 1.0e-5
kspace_modify order 4

dielectric 80

set type 1 charge  -1
Setting atom values ...
  1000 settings made for charge
set type 3 charge  1
Setting atom values ...
  1000 settings made for charge


# In kcal/mol and Angstrom
pair_coeff 1 1   1.19 4.7
pair_coeff 1 2   0.48 6.2
pair_coeff 1 3   1.33 4.7
pair_coeff 1 4   1.33 4.7
pair_coeff 2 2   0.84 4.7
pair_coeff 2 3   0.48 6.2
pair_coeff 2 4   0.48 4.7
pair_coeff 3 3   1.19 4.7
pair_coeff 3 4   1.33 4.7
pair_coeff 4 4   1.19 4.7
bond_coeff 1 2.98 4.7
angle_coeff 1 5.97 180


dump        mydump  all atom 5000 sds-continue.lammpstrj

thermo              100
timestep 20

fix mom all momentum 1000 linear 1 1 1

fix fxnpt1 all npt temp 300 400 $(100*dt) iso 1 1 $(1000*dt) mtk yes
fix fxnpt1 all npt temp 300 400 2000 iso 1 1 $(1000*dt) mtk yes
fix fxnpt1 all npt temp 300 400 2000 iso 1 1 20000 mtk yes
run 100000
PPPM initialization ...
  using 12-bit tables for long-range coulomb (src/kspace.cpp:342)
  G vector (1/distance) = 0.14214563
  grid = 16 16 16
  stencil order = 4
  estimated absolute RMS force accuracy = 0.0038355804
  estimated relative force accuracy = 1.1550736e-05
  using double precision KISS FFT
  3d grid and FFT values/proc = 2197 512
Generated 0 of 6 mixed pair_coeff terms from geometric mixing rule
Neighbor list info ...
  update every 1 steps, delay 10 steps, check yes
  max neighbors/atom: 2000, page size: 100000
  master list distance cutoff = 12.3
  ghost atom cutoff = 12.3
  binsize = 6.15, bins = 17 17 17
  1 neighbor lists, perpetual/occasional/extra = 1 0 0
  (1) pair lj/cut/coul/long, perpetual
      attributes: half, newton on
      pair build: half/bin/newton
      stencil: half/bin/3d
      bin: standard
Per MPI rank memory allocation (min/avg/max) = 8.146 | 8.168 | 8.182 Mbytes
   Step          Temp          E_pair         E_mol          TotEng         Press          Volume    
         0   301.44189     -52782.215      1535.2063     -43260.777      24.223124      1046392.6    
       100   297.74535     -52806.237      1528.2105     -43389.728      29.766658      1046453      
       200   295.85939     -52750.016      1521.9851     -43389.698     -4.6672722      1047400.8    
       300   297.25568     -52716.271      1514.1212     -43326.824     -2.9445278      1048165.9    
       400   297.09984     -52710.427      1521.571      -43317.659     -17.230264      1047434.9    
       500   301.1079      -52854.061      1565.975      -43310.701      7.5616353      1045397.1    
       600   297.59239     -52816.654      1569.4182     -43362.99       46.519992      1044785.9    
       700   298.05746     -52786.166      1529.549      -43360.05       23.694337      1046699.2    
       800   296.80824     -52741.402      1542.0593     -43335.871     -61.979301      1048921.1    
       900   298.28753     -52776.507      1536.2843     -43337.56      -24.448372      1047187.6    
      1000   297.55763     -52761.516      1560.3529     -43317.838      67.693191      1044777      
      1100   301.38715     -52820.605      1525.6302     -43310.193      9.0639756      1046502.2    
      1200   294.00919     -52629.375      1548.7547     -43291.305     -57.724197      1050180.4    
      1300   296.43872     -52659.388      1566.5272     -43239.18      -24.921471      1050025.3    
      1400   295.93537     -52593.026      1546.6456     -43206.034      48.571638      1048068.5    
      1500   294.08036     -52584.325      1604.6019     -43188.523      68.049972      1048157.6    
      1600   301.16993     -52675.905      1524.3788     -43172.498     -31.424196      1050629.3    
      1700   297.96373     -52578.764      1554.1382     -43130.542     -39.42039       1051306.6    
      1800   302.38932     -52690.867      1550.3548     -43129.179     -16.133866      1048800.9    
      1900   304.40514     -52756.871      1526.0015     -43166.13       36.031438      1046422.5    
      2000   299.7021      -52673.659      1532.3886     -43201.131     -20.366342      1048090.2    
      2100   298.84534     -52609.971      1525.6727     -43166.858     -29.146567      1050498.3    
      2200   298.3738      -52602.232      1532.637      -43164.647     -10.518722      1051275.4    
      2300   299.28101     -52602.431      1517.1137     -43156.334      7.9962268      1050262.2    
      2400   305.34666     -52779.44       1540.2092     -43149.548     -10.974925      1048189      
      2500   302.9777      -52694.18       1485.1972     -43182.062      30.205316      1047115.3    
      2600   301.4961      -52699.528      1523.0499     -43188.809      2.252336       1048455.9    
      2700   295.25306     -52595.686      1587.0519     -43186.365     -30.793751      1050176.8    
      2800   297.96668     -52595.026      1518.6604     -43182.203      12.25269       1048730.9    
      2900   301.73627     -52666.86       1519.0293     -43153.799      22.61873       1047197.3    
      3000   296.36587     -52547.253      1571.7451     -43123.757      32.831548      1048974.5    
      3100   298.468       -52522.739      1536.2437     -43079.051     -38.592101      1052593.2    
      3200   297.65741     -52435.647      1531.0617     -43018.617     -38.630635      1053331.5    
      3300   300.69552     -52514.916      1574.7445     -42973.713     -21.932315      1051493.3    
      3400   305.19389     -52610.887      1567.4672     -42957.784      21.338492      1050217      
      3500   301.82522     -52516.556      1556.9311     -42963.237      10.686102      1052091.7    
      3600   302.12394     -52440.423      1490.5335     -42945.587     -44.014652      1054786.1    
      3700   300.06111     -52427.95       1541.4915     -42936.808      5.1116932      1054183.8    
      3800   304.97853     -52616.189      1590.0868     -42946.172     -11.13937       1051761.5    
      3900   305.93653     -52640.717      1561.6039     -42973.802      20.702643      1049500.3    
      4000   299.05552     -52530.921      1591.365      -43016.546      36.074958      1049454      
      4100   301.77779     -52553.835      1545.6638     -43013.039      10.761154      1050939.9    
      4200   302.01872     -52609.731      1574.7158     -43033.5       -90.501782      1052762.2    
      4300   301.88878     -52556.989      1543.3182     -43015.598     -15.549286      1052122.6    
      4400   303.46474     -52575.614      1546.6517     -42989.138      4.2947517      1050851.3    
      4500   302.88226     -52569.89       1569.6255     -42975.871      10.354649      1050246.7    
      4600   306.41347     -52656.363      1566.8272     -42971.589     -18.462814      1050912.9    
      4700   302.86539     -52518.778      1535.4682     -42959.364     -18.694455      1052488.1    
      4800   303.80234     -52540.02       1546.0698     -42945.182     -48.403364      1053316.2    
      4900   301.34358     -52464.66       1562.8229     -42918.21       12.236207      1052680.4    
      5000   303.49714     -52456.165      1520.7673     -42894.715      21.408818      1052872.6    
      5100   300.64013     -52387.615      1565.5494     -42857.074      6.0080578      1054088.3    
      5200   306.01999     -52553.619      1608.2135     -42837.884     -47.414119      1053644      
      5300   303.9941      -52499.353      1586.3964     -42859.107      21.223799      1051400.6    
      5400   306.20255     -52557.364      1563.8551     -42881.15      -17.10111       1051000.8    
      5500   300.99776     -52426.808      1546.737      -42905.605      30.402732      1052133.8    
      5600   300.99165     -52483.186      1604.6692     -42904.212     -51.478161      1054117.1    
      5700   299.77816     -52416.127      1571.7204     -42902.252     -16.357868      1054004      
      5800   305.20872     -52501.942      1544.9802     -42870.933      13.200307      1052238.8    
      5900   307.42221     -52580.007      1580.1136     -42855.222     -25.863094      1051920.6    
      6000   307.10033     -52568.252      1587.4304     -42844.678     -30.228826      1053058.3    
      6100   300.77257     -52380.855      1556.6739     -42855.681     -6.9619579      1054504.2    
      6200   302.69773     -52487.117      1598.4553     -42869.157      18.371241      1054215.7    
      6300   303.72252     -52469.071      1565.4211     -42856.995     -6.8640128      1053808.8    
      6400   307.64157     -52582.709      1581.0017     -42851.223     -16.037014      1052404.1    
      6500   308.77583     -52593.727      1547.8087     -42865.384     -4.7090249      1052127.6    
      6600   302.98081     -52421.656      1531.2183     -42863.434     -11.004583      1054063.7    
      6700   299.11728     -52312.741      1555.4927     -42832.603     -17.473617      1055742.1    
      6800   304.10521     -52406.61       1542.5572     -42807.259      10.862809      1054956.5    
      6900   303.33953     -52349.055      1544.5208     -42768.027      17.963131      1054273.3    
      7000   306.88628     -52426.658      1553.2376     -42742.947     -13.077353      1054501.9    
      7100   305.55755     -52418.304      1575.2206     -42747.813     -17.969295      1055187.7    
      7200   306.00263     -52485.244      1621.1507     -42757.031     -18.318802      1054574.7    
      7300   305.39139     -52445.128      1600.4115     -42753.848      8.6035712      1054009.4    
      7400   303.4791      -52349.796      1531.0664     -42778.525      5.5472595      1054404.3    
      7500   305.91976     -52473.371      1585.0205     -42783.484     -52.750249      1053971.3    
      7600   305.717       -52419.414      1542.5704     -42777.349      44.21133       1052428.8    
      7700   303.9585      -52397.611      1560.0514     -42784.654      47.709362      1053381.5    
      7800   306.50337     -52404.339      1528.9604     -42755.051     -30.774846      1055809.6    
      7900   305.68556     -52415.002      1596.7708     -42719.569     -50.187893      1055671.5    
      8000   308.56482     -52459.273      1584.4585     -42699.871      3.1264309      1052545.4    
      8100   307.76733     -52491.803      1604.8968     -42733.091      59.904726      1050573      
      8200   306.67516     -52451.408      1576.0864     -42750.442      3.8431797      1052281.3    
      8300   305.11138     -52342.507      1534.5442     -42724.513     -2.0383311      1054890.1    
      8400   302.04318     -52367.254      1635.4068     -42729.685     -33.853481      1055307.4    
      8500   306.17531     -52452.807      1626.6084     -42714.562     -1.8588106      1053633      
      8600   307.50582     -52391.921      1516.9518     -42728.083      11.915086      1053157.5    
      8700   307.06612     -52433.468      1578.0357     -42720.194     -13.383651      1054369.2    
      8800   304.96057     -52311.263      1540.264      -42691.545     -10.585064      1055962.9    
      8900   305.25511     -52256.747      1532.05       -42637.439     -13.38401       1056479.9    
      9000   306.991       -52271.67       1560.183      -42578.239      15.048358      1055895.3    
      9100   307.54691     -52233.988      1555.899      -42530.113     -5.362868       1056351.6    
      9200   306.51064     -52200.851      1595.6965     -42484.634     -32.166523      1057940.3    
      9300   307.49977     -52157.573      1554.234      -42456.612     -14.620639      1058208.7    
      9400   308.76127     -52175.475      1550.6674     -42444.659      10.531438      1057218.5    
      9500   307.23681     -52179.686      1587.4181     -42452.508      35.271773      1056066.6    
      9600   308.09252     -52294.54       1637.706      -42494.403      9.6216711      1055599.9    
      9700   303.90998     -52211.215      1611.5717     -42548.023     -16.80784       1056762.9    
      9800   307.79528     -52220.963      1573.118      -42493.289     -9.7617376      1057187      
      9900   305.52504     -52221.808      1598.7922     -42528.607     -11.392599      1057164.6    
     10000   307.58458     -52212.099      1583.9779     -42479.148     -23.144347      1056977.4    
     10100   311.10638     -52259.049      1562.9031     -42453.868     -17.323129      1056156.2    
     10200   306.94065     -52137.376      1572.2906     -42433.172      10.062978      1056326.6    
     10300   307.94945     -52125.019      1540.1188     -42426.26      -15.598196      1057491.9    
     10400   309.8862      -52197.327      1559.8231     -42427.553     -32.244659      1057790.3    
     10500   307.59106     -52220.115      1635.884      -42435.085     -15.705171      1056428.4    
     10600   308.63804     -52198.192      1580.5389     -42440.77      -9.1186983      1055676.2    
     10700   307.42598     -52164.27       1563.6363     -42455.862     -1.3120444      1056679.7    
     10800   308.64759     -52187.706      1570.0473     -42440.522     -43.363746      1058001.9    
     10900   308.45817     -52139.205      1545.9634     -42421.123     -4.5945381      1057421.7    
     11000   306.90093     -52067.284      1530.6971     -42405.726      52.501245      1056345.8    
     11100   305.77845     -52108.32       1610.5005     -42396.697      22.372994      1056636.7    
     11200   310.03543     -52137.525      1541.2994     -42382.321     -11.041617      1058834.6    
     11300   307.76273     -52039.536      1525.2324     -42360.61      -31.702484      1060667.6    
     11400   306.56185     -52032.188      1593.2976     -42317.012     -0.57772136     1059188.2    
     11500   309.98185     -52058.255      1557.0799     -42288.69       9.5448983      1057340      
     11600   311.88878     -52144.226      1593.2506     -42287.969      19.116137      1057133.4    
     11700   309.7275      -52070.767      1587.4707     -42277.549     -27.10138       1059022.6    
     11800   312.66786     -52087.995      1548.8908     -42255.457     -38.201444      1060148.1    
     11900   304.6411      -51923.198      1614.3189     -42237.889      30.398495      1058941.1    
     12000   311.92738     -52080.123      1602.816      -42213.278     -24.960988      1057345.9    
     12100   311.93474     -52032.865      1555.5933     -42213.047      4.6917851      1058074.1    
     12200   307.8122      -51945.445      1584.993      -42205.449     -45.243323      1060097.9    
     12300   305.71061     -51868.475      1594.8268     -42174.322      13.798143      1059620.1    
     12400   307.91082     -51941.277      1615.1827     -42168.477      13.566592      1058785.2    
     12500   308.63592     -51906.275      1587.8166     -42141.631      17.595765      1059538.3    
     12600   308.09194     -51845.016      1538.0991     -42144.502      3.7922892      1060437.7    
     12700   309.34246     -51898.732      1585.5034     -42117.683     -9.6285596      1061192.2    
     12800   310.20107     -51916.042      1600.5739     -42097.175     -11.111089      1061936.6    
     12900   306.86993     -51860.289      1650.0098     -42080.239     -24.785427      1061999.7    
     13000   312.52325     -51934.803      1602.4102     -42052.577     -10.882924      1060238.6    
     13100   315.98914     -51979.53       1530.6659     -42077.225      5.9285937      1058386.3    
     13200   310.38169     -51955.66       1570.0844     -42162.497      70.2717        1057853.8    
     13300   309.85469     -51951.959      1606.8927     -42135.95       18.796422      1060203.4    
     13400   309.92562     -51877.385      1548.0295     -42118.359     -39.03486       1062760.2    
     13500   311.61459     -51912.349      1558.1878     -42098.419     -14.233678      1060875.7    
     13600   315.56858     -52057.197      1591.7682     -42104.931      30.354838      1057105.8    
     13700   314.48227     -52037.55       1572.7481     -42133.085      17.766189      1057819.3    
     13800   309.08168     -51906.046      1584.7429     -42132.666     -38.348506      1060765.3    
     13900   310.19263     -51906.505      1572.6767     -42115.759     -67.277165      1062447.2    
     14000   310.91523     -51935.606      1591.9254     -42106.467      2.3557594      1060370.5    
     14100   314.86848     -52031.858      1600.8986     -42089.01       27.010401      1058269.7    
     14200   315.43025     -51985.43       1542.8334     -42085.764      23.049777      1059536.3    
     14300   307.76632     -51858.68       1654.3518     -42050.54      -44.345295      1062778.7    
     14400   309.49201     -51805.75       1598.8065     -42007.435     -39.446473      1063526.8    
     14500   314.76658     -51839.556      1536.2249     -41964.082     -23.096883      1061717.7    
     14600   315.70325     -51901.96       1581.445      -41956.45       48.254552      1059545.5    
     14700   309.21292     -51745.985      1576.11       -41977.761      44.585445      1060993.1    
     14800   312.77642     -51828.709      1569.2782     -41972.908     -37.544414      1062654      
     14900   311.49939     -51825.734      1601.4107     -41971.633     -20.461525      1061629.9    
     15000   314.16591     -51945.756      1631.3019     -41991.118      8.8726945      1060409.4    
     15100   313.43802     -51874.103      1567.7677     -42002.284      39.598979      1060801      
     15200   312.77631     -51874.481      1597.213      -41990.748      2.2738564      1062445.1    
     15300   313.35496     -51855.289      1574.8248     -41978.613     -32.693103      1063901.9    
     15400   316.01381     -51880.067      1565.3436     -41942.43      -35.432672      1062959.8    
     15500   317.92805     -51990.859      1637.4963     -41930.355     -34.023642      1060859.6    
     15600   314.24798     -51849.751      1591.2273     -41933.014      39.997341      1060655.2    
     15700   311.3786      -51848.192      1680.7759     -41917.926     -64.749655      1063249.3    
     15800   312.53782     -51808.772      1624.4401     -41904.13      -23.754598      1063382.9    
     15900   314.29761     -51859.266      1628.97       -41903.472      35.394717      1061695.8    
     16000   315.06588     -51839.973      1576.1729     -41916.621     -2.7510798      1061579.7    
     16100   314.48135     -51848.807      1608.015      -41909.099     -22.552569      1061711.9    
     16200   314.33743     -51807.624      1559.2267     -41920.517     -1.1935054      1061129.6    
     16300   312.8723      -51838.201      1630.2616     -41918.876     -12.256169      1061670.6    
     16400   312.9027      -51807.104      1605.5528     -41911.683     -27.997961      1063316.6    
     16500   314.06875     -51806.755      1592.2677     -41893.726     -44.445831      1063432.4    
     16600   313.95615     -51825.742      1633.2939     -41874.67       8.5647667      1061033      
     16700   315.81317     -51871.824      1637.6597     -41867.187      45.239896      1060227.5    
     16800   314.50677     -51784.451      1586.5349     -41865.55      -22.400624      1063067.5    
     16900   314.09843     -51708.322      1541.9234     -41844.851     -28.779856      1064430.2    
     17000   314.26349     -51717.026      1571.3121     -41819.793     -6.5256609      1063220      
     17100   315.84974     -51798.868      1624.874      -41806.048      39.298032      1060996.3    
     17200   316.42217     -51788.046      1617.9188     -41787.015      23.564958      1061575.4    
     17300   312.62529     -51712.356      1646.4193     -41783.418     -1.9022514      1064519.5    
     17400   314.52554     -51729.425      1633.1119     -41763.45      -39.755874      1065140.4    
     17500   314.35974     -51721.358      1637.9472     -41754.94       27.019464      1063384      
     17600   316.81942     -51800.29       1637.018      -41769.636      1.4206516      1063454.8    
     17700   316.46436     -51791.021      1639.7309     -41767.061     -47.744718      1065697.2    
     17800   310.12689     -51552.797      1599.0698     -41737.399     -26.336972      1067731.2    
     17900   312.30982     -51572.41       1611.4995     -41686.749     -26.943588      1066499.9    
     18000   320.86751     -51782.125      1616.0033     -41665.238      27.233283      1063471      
     18100   320.16193     -51771.489      1590.0696     -41699.229      23.498732      1064214.1    
     18200   317.31393     -51683.293      1588.2568     -41688.299     -61.397597      1067161.8    
     18300   315.28102     -51567.192      1555.5124     -41658.801     -19.215137      1068559.8    
     18400   316.16394     -51567.234      1561.6343     -41629.33      -37.349097      1068230.2    
     18500   318.75076     -51603.011      1565.4232     -41592.784     -4.2443753      1065996.5    
     18600   321.13906     -51698.201      1587.7412     -41602.381     -0.69011103     1063976.2    
     18700   319.02279     -51678.089      1583.2446     -41642.833      25.095623      1064035      
     18800   315.66199     -51559.037      1562.6475     -41633.417     -9.901705       1066531.6    
     18900   315.37222     -51530.314      1551.5908     -41623.428     -25.896959      1068857.4    
     19000   309.76224     -51376.23       1584.3993     -41585.164     -1.0371009      1069382.1    
     19100   314.87301     -51458.656      1582.5504     -41534.036      14.344069      1067525.3    
     19200   317.17764     -51532.925      1622.507      -41507.291      69.531855      1064622      
     19300   314.94757     -51462.334      1609.0534     -41509.236      27.458298      1066053.5    
     19400   317.6289      -51481.886      1584.893      -41481.91      -30.066226      1068901.5    
     19500   316.57082     -51437.757      1587.3275     -41463.379     -37.79782       1069411.2    
     19600   318.17344     -51502.108      1614.0938     -41458.506      2.46562        1066712.3    
     19700   319.59754     -51554.326      1607.1332     -41479.955      24.104339      1064456.4    
     19800   317.04486     -51431.95       1551.0381     -41481.303      7.908463       1066387.3    
     19900   314.70483     -51449.004      1617.8563     -41493.534     -47.624565      1068225.5    
     20000   318.17856     -51518.422      1610.7927     -41477.985      4.3161437      1066736.3    
     20100   321.85397     -51604.71       1590.3266     -41487.365     -20.569793      1065667      
     20200   319.88203     -51555.054      1596.4236     -41483.855     -28.523786      1066321.9    
     20300   317.97225     -51445.879      1558.4553     -41463.245     -37.881771      1067750.7    
     20400   315.71084     -51406.782      1603.3997     -41439.116      9.8193604      1067628.7    
     20500   317.11269     -51370.396      1552.0569     -41416.933      24.904146      1067193.6    
     20600   315.38329     -51379.985      1641.1336     -41383.264      5.1936103      1067302.7    
     20700   316.49981     -51346.668      1616.7728     -41344.726     -6.485081       1068688.5    
     20800   320.10574     -51352.577      1556.8237     -41315.052     -30.366239      1069298.4    
     20900   320.19457     -51395.971      1594.6068     -41318.308      18.804151      1066833.3    
     21000   319.79406     -51455.611      1644.0677     -41339.099      48.135227      1065414.7    
     21100   317.69667     -51433.344      1630.2084     -41386.258      30.646997      1066879.9    
     21200   315.76139     -51369.862      1628.6873     -41375.569     -12.555887      1069317.3    
     21300   317.63552     -51368.567      1582.7311     -41370.578     -55.528634      1070116.8    
     21400   318.04765     -51392.056      1639.5074     -41326.372     -1.5881085      1067783.4    
     21500   326.63763     -51508.513      1527.7723     -41326.986      43.427637      1064447.2    
     21600   321.38312     -51560.154      1655.4906     -41390.119      8.2671125      1065378.1    
     21700   319.20953     -51406.822      1566.5699     -41383.294     -27.485155      1068913.5    
     21800   321.25805     -51481.607      1614.9372     -41355.439     -79.463963      1070896.2    
     21900   318.63736     -51366.069      1585.0555     -41339.213      1.6667984      1068438.7    
     22000   316.32029     -51329.678      1623.3        -41325.966      61.136487      1066206.9    
     22100   319.19819     -51405.221      1594.0346     -41354.528      16.450336      1066794.8    
     22200   321.36129     -51460.746      1594.0626     -41352.718     -50.012599      1067505.8    
     22300   323.74362     -51562.518      1634.3735     -41351.063      4.7065353      1066095.9    
     22400   322.0078      -51568.717      1658.4001     -41379.223     -46.291978      1066746.3    
     22500   318.69193     -51464.7        1642.2406     -41379.214     -17.26121       1067681.6    
     22600   316.39292     -51415.609      1674.1402     -41359.133     -3.4589812      1067612.2    
     22700   321.83357     -51497.03       1642.3794     -41328.173     -21.92792       1067385.6    
     22800   320.69432     -51444.567      1650.3029     -41297.968     -4.104634       1067069.6    
     22900   319.45123     -51410.231      1663.0872     -41283.782     -17.985013      1067602.6    
     23000   321.08165     -51381.468      1615.0692     -41259.842     -6.1797542      1068107.1    
     23100   320.12861     -51404.476      1668.8005     -41254.368     -7.1723213      1068711.7    
     23200   321.18492     -51356.248      1616.997      -41229.957     -18.29149       1069804.4    
     23300   316.88313     -51200.823      1608.7794     -41196.719      6.5334964      1071048.4    
     23400   319.54717     -51242.778      1629.5754     -41147.299     -42.009733      1071088.6    
     23500   322.03757     -51304.033      1675.2869     -41096.864     -6.843445       1069277.8    
     23600   319.93923     -51217.497      1645.8257     -41095.381      36.539527      1068517      
     23700   322.67463     -51285.606      1646.4943     -41090.35      -15.060082      1069883.1    
     23800   321.72669     -51221.197      1592.0342     -41105.516      9.4182545      1070395      
     23900   320.56322     -51272.037      1659.0931     -41120.121      27.65588       1069982.1    
     24000   320.39824     -51268.603      1637.5331     -41142.619     -31.771116      1070407.9    
     24100   320.30358     -51225.18       1587.8844     -41151.352     -4.2093295      1070847.2    
     24200   322.49943     -51314.622      1634.9197     -41135.583     -35.533735      1071358      
     24300   320.38384     -51191.805      1604.6442     -41099.091     -17.607104      1071773.2    
     24400   322.38803     -51174.654      1552.6163     -41080.869      42.000721      1071316.5    
     24500   321.53305     -51155.28       1582.6149     -41054.149      11.209967      1071662.4    
     24600   321.34998     -51128.448      1581.3824     -41033.399      6.5001563      1072478.6    
     24700   321.11075     -51130.653      1604.3208     -41019.004      27.226472      1071808.5    
     24800   326.4561      -51291.272      1625.8447     -41016.482     -45.462251      1070451.2    
     24900   324.53653     -51257.661      1621.9873     -41037.584      11.021642      1069136.1    
     25000   322.82875     -51225.246      1619.5743     -41052.828      32.393177      1069268.8    
     25100   322.49218     -51215.404      1623.2893     -41048.188     -58.524628      1072053.8    
     25200   322.89624     -51218.393      1633.3673     -41030.394     -56.740444      1073402.7    
     25300   320.18355     -51104.454      1627.7379     -40993.953      53.078696      1071261      
     25400   321.06017     -51197.441      1701.6149     -40989.838      21.836591      1069993      
     25500   323.08577     -51187.902      1651.7273     -40976.521      21.418177      1071056      
     25600   321.39323     -51059.826      1599.7751     -40945.239     -21.923487      1074396.6    
     25700   323.52022     -51098.49       1610.9562     -40916.37      -68.773077      1076207.3    
     25800   322.81058     -51073.172      1628.0828     -40892.727      32.453886      1073279.8    
     25900   325.57884     -51162.505      1641.7194     -40895.082      31.690191      1070663.3    
     26000   324.15354     -51137.469      1631.5521     -40917.975      23.663839      1070971.2    
     26100   321.09024     -51084.479      1668.6116     -40909.083     -32.593322      1073398.5    
     26200   322.37302     -51094.87       1643.4031     -40910.696     -22.862006      1073615.9    
     26300   321.98992     -51109.003      1669.145      -40909.237      1.5613086      1072654.4    
     26400   323.49563     -51109.955      1639.5133     -40899.929     -23.134236      1072768.8    
     26500   321.78684     -51065.596      1632.4973     -40907.859      37.809325      1072920.2    
     26600   324.96839     -51113.316      1617.2863     -40886.499     -19.498483      1074200.1    
     26700   324.24489     -51070.676      1620.2771     -40860.037     -41.453243      1074773      
     26800   323.8886      -51060.911      1650.0253     -40829.962     -2.7340962      1073243.2    
     26900   322.54554     -50992.81       1639.6038     -40807.865      45.398097      1072081      
     27000   322.53284     -50968.495      1622.9435     -40800.547      40.56134       1073521      
     27100   323.35128     -50969.18       1634.9051     -40767.587     -22.723612      1075987.1    
     27200   326.04847     -51054.2        1674.4662     -40741.589     -51.310513      1075792.7    
     27300   323.09818     -50908.544      1627.2128     -40721.349      22.90039       1073762.8    
     27400   322.57047     -50959.617      1683.2328     -40730.383      18.550265      1073294      
     27500   327.44104     -51013.802      1604.3077     -40734.454     -6.367846       1073708      
     27600   328.52994     -51108.638      1661.3058     -40743.444     -52.187713      1074247      
     27700   322.37519     -50984.95       1704.7497     -40739.373      0.18250769     1074190      
     27800   325.27235     -51021.173      1655.2776     -40748.311     -41.870851      1074534.5    
     27900   324.5503      -50944.244      1611.1997     -40734.591      40.733838      1073570      
     28000   326.42455     -51065.806      1658.1842     -40759.513     -10.444603      1071942      
     28100   330.58344     -51185.008      1620.9939     -40805.722      11.415405      1070372.9    
     28200   325.47435     -51045.401      1602.4723     -40819.994     -3.5780096      1072826      
     28300   323.93667     -51044.228      1653.354      -40808.677     -56.658009      1076011.9    
     28400   322.94937     -51024.35       1688.8505     -40779.46      -51.34975       1074674      
     28500   327.42375     -51112.522      1674.1669     -40763.774      17.565525      1071047.7    
     28600   325.82176     -51051.681      1646.0066     -40773.535      72.441848      1070560.2    
     28700   323.90202     -51061.893      1713.7338     -40766.881     -59.780164      1074575.7    
     28800   322.03161     -50917.365      1669.1121     -40716.528     -27.038265      1076991      
     28900   323.68183     -50836.842      1596.5574     -40664.84      -16.051165      1076630.9    
     29000   326.40285     -50920.606      1656.9923     -40616.08       25.390307      1074520.1    
     29100   328.47804     -51008.275      1711.1325     -40594.63       20.500785      1073479.1    
     29200   327.65833     -50974.326      1702.0492     -40591.481     -14.059993      1075174.5    
     29300   327.05084     -50891.084      1656.7181     -40569.664      5.9921566      1077024.1    
     29400   324.80072     -50827.583      1686.1332     -40536.361     -16.942068      1078556.8    
     29500   323.80647     -50769.822      1683.3595     -40507.715     -6.3137005      1079208.6    
     29600   324.91891     -50755.235      1674.8369     -40472.178      17.498713      1078306.4    
     29700   330.36386     -50916.282      1697.2798     -40466.528      15.971094      1075887.9    
     29800   327.72874     -50859.678      1687.2949     -40489.722      44.771788      1075625.5    
     29900   329.67134     -50887.953      1656.7618     -40497.063     -9.5162671      1077802.2    
     30000   327.00053     -50732.158      1582.1867     -40486.603     -27.768065      1079098.4    
     30100   325.3385      -50730.855      1623.5558     -40487.963      8.059806       1078414.3    
     30200   327.42079     -50776.242      1631.7788     -40469.96       3.1240936      1077329.5    
     30300   326.47139     -50765.304      1645.4687     -40470.485      0.65203834     1077562.9    
     30400   330.77291     -50839.665      1614.1011     -40462.252     -31.836759      1077345.2    
     30500   327.52639     -50818.348      1668.6959     -40472.352      11.090022      1075378.2    
     30600   331.35762     -50952.461      1684.5978     -40489.06      -8.3390062      1074301.4    
     30700   330.52832     -50919.576      1643.5119     -40519.232      11.283456      1075356      
     30800   329.72672     -50877.076      1600.4939     -40540.987     -49.022062      1077748.6    
     30900   326.46847     -50857.747      1666.9918     -40541.482     -52.478038      1077679.9    
     31000   325.39582     -50816.035      1672.8689     -40522.312      23.467001      1074747.8    
     31100   330.39939     -50929.753      1665.9298     -40510.407      55.593261      1073135.1    
     31200   326.69464     -50906.721      1725.9473     -40525.509     -3.8644381      1074470.4    
     31300   329.06429     -50900.663      1679.2259     -40503.392     -21.563247      1076530.3    
     31400   329.02137     -50885.101      1666.3558     -40501.837     -39.819325      1077378.7    
     31500   329.52166     -50889.791      1665.3432     -40494.285     -18.227035      1074928.7    
     31600   325.26208     -50847.557      1721.3061     -40508.94       76.226167      1072976.3    
     31700   331.28825     -50993.065      1669.8904     -40546.21      -13.080496      1074624.6    
     31800   324.52321     -50846.318      1728.2875     -40520.294     -46.65488       1077235.5    
     31900   326.71735     -50801.875      1647.6233     -40498.385     -29.031054      1077048.7    
     32000   331.1905      -50890.903      1678.7149     -40437.813     -1.6732755      1075408      
     32100   333.24447     -50889.874      1640.5725     -40420.509     -16.095788      1075446.2    
     32200   327.95474     -50774.545      1675.4942     -40410.402      3.5361466      1075623.3    
     32300   330.69036     -50844.264      1683.9599     -40399.179     -8.0898486      1075211.8    
     32400   328.4423      -50739.584      1656.3528     -40381.665     -17.951662      1076089.5    
     32500   330.30842     -50808.44       1689.3909     -40368.043     -13.615203      1076597.3    
     32600   330.59291     -50755.548      1628.4813     -40368.523     -5.0683367      1076926.9    
     32700   329.10766     -50714.568      1645.8503     -40349.523     -18.132625      1076931.9    
     32800   330.24185     -50748.33       1663.6309     -40335.457      24.856002      1075552.9    
     32900   330.30333     -50726.562      1641.9775     -40333.713      5.5026413      1075763      
     33000   331.53209     -50740.337      1639.001      -40317.911     -5.4204517      1077307.8    
     33100   330.15434     -50721.902      1671.2653     -40303.713     -22.144827      1078801.9    
     33200   330.65498     -50647.405      1623.2946     -40263.922     -25.714468      1079638.2    
     33300   329.7854      -50631.556      1654.3647     -40240.041      11.526953      1078547.6    
     33400   332.88283     -50698.178      1652.2188     -40226.748     -3.567644       1078616.2    
     33500   327.89394     -50594.427      1707.339      -40200.049     -17.227452      1080391      
     33600   331.39528     -50588.76       1633.6675     -40175.292     -14.69605       1081407.4    
     33700   334.3115      -50658.094      1649.9176     -40151.115     -45.666646      1081687      
     33800   331.65679     -50564.365      1627.7178     -40149.918     -8.8983011      1081284.7    
     33900   334.3876      -50679.523      1666.7628     -40153.682     -2.9004727      1079563      
     34000   329.50231     -50576          1651.1208     -40195.229      33.46022       1078088.7    
     34100   334.53029     -50721.467      1654.7828     -40203.826     -15.646946      1078780.6    
     34200   329.86626     -50577.325      1619.2338     -40218.8        9.5480732      1079633.7    
     34300   327.49586     -50543.957      1647.9815     -40219.484      31.392249      1079644.9    
     34400   327.51054     -50556.259      1686.7308     -40192.647      19.979285      1079736.9    
     34500   329.7481      -50647.129      1731.7559     -40179.211     -3.6425881      1080133.5    
     34600   327.66016     -50555.074      1709.0935     -40165.136      22.399379      1080745.5    
     34700   333.42456     -50628.641      1649.9211     -40145.156      4.4119392      1081513.9    
     34800   331.72791     -50602.317      1669.9942     -40143.709     -14.220897      1081303.8    
     34900   332.90782     -50620.289      1671.8178     -40128.598     -21.892863      1080561.2    
     35000   333.12957     -50589.763      1643.6142     -40120.4       -5.5248364      1080108.2    
     35100   330.1039      -50535.311      1673.1324     -40116.591      27.635564      1079701.7    
     35200   333.85434     -50629.897      1683.8559     -40101.091     -26.554182      1080578      
     35300   330.61054     -50497.191      1658.7525     -40079.428      14.67226       1081003.1    
     35400   330.41583     -50514.44       1694.7573     -40065.831      12.865457      1080434.7    
     35500   333.00939     -50563.501      1689.2643     -40051.673      10.448928      1080595.7    
     35600   332.72329     -50536.018      1691.7682     -40029.265     -13.738023      1081726.4    
     35700   332.80122     -50582.244      1754.8414     -40010.354     -40.200667      1082697.7    
     35800   335.70191     -50579.425      1683.013      -40002.514     -9.311278       1081940.8    
     35900   331.27468     -50451.108      1675.6924     -39998.809      17.398183      1082145.2    
     36000   332.06149     -50491.141      1709.1336     -39984.557     -5.5923234      1082670.1    
     36100   336.82806     -50571.455      1655.9293     -39991.791     -6.3500392      1082811.5    
     36200   334.38194     -50418.886      1587.9216     -39972.037     -6.9531111      1083803.2    
     36300   333.12972     -50430.76       1644.9922     -39960.016     -35.677149      1084444.7    
     36400   334.55579     -50479.953      1646.4075     -39970.011     -4.0853972      1082755.7    
     36500   335.0822      -50576.089      1713.3532     -39985.256     -2.7006881      1081398.6    
     36600   335.939       -50536.052      1638.8987     -39996.973      6.2553936      1082001.9    
     36700   332.04091     -50479.989      1677.5833     -40005.5       -22.815934      1084257.4    
     36800   329.78563     -50423.075      1687.3345     -39998.585      3.5881503      1084442      
     36900   332.48335     -50452.365      1686.0155     -39957.722      7.0498503      1082977.5    
     37000   335.44085     -50472.322      1652.1346     -39933.205      27.021725      1081937.3    
     37100   333.78362     -50458.652      1695.0598     -39920.516      13.436426      1082696.9    
     37200   335.91941     -50468.31       1674.2685     -39894.381     -40.093748      1084805.6    
     37300   334.10424     -50410.189      1683.2794     -39875.339     -31.776221      1085782      
     37400   332.62309     -50375.361      1722.1905     -39840.84       1.5709616      1084782.2    
     37500   336.01342     -50405.916      1672.9008     -39830.864      6.1223517      1082613.2    
     37600   335.23095     -50425.062      1723.1569     -39820.484     -4.9143571      1082560.9    
     37700   338.15145     -50402.487      1640.3219     -39803.37      -28.073746      1084239.8    
     37800   335.71163     -50303.265      1615.0003     -39794.109     -24.574725      1084707.4    
     37900   336.65679     -50392.984      1681.5398     -39792.248     -39.087383      1083444.6    
     38000   338.71372     -50451.641      1698.425      -39779.525     -0.066605449    1081899.6    
     38100   334.45263     -50378.677      1710.5793     -39807.297      50.49933       1082175.7    
     38200   330.34406     -50293.661      1728.2224     -39813.488      12.682982      1084896.5    
     38300   335.78404     -50356.959      1671.3285     -39789.556     -55.250758      1086229      
     38400   335.65095     -50366.292      1718.3997     -39755.344     -12.115885      1085354.5    
     38500   339.93009     -50381.218      1638.2        -39737.1        21.359379      1083827.5    
     38600   333.82948     -50244.629      1663.8347     -39736.503     -4.850531       1085410.3    
     38700   337.71711     -50315.682      1673.1799     -39695.214     -80.452204      1087921.7    
     38800   338.81002     -50313.81       1670.872      -39666.695     -42.496036      1087119.8    
     38900   337.46693     -50255.758      1646.9881     -39668.11       56.357504      1084664.1    
     39000   337.22851     -50375.974      1751.4798     -39690.151      48.613137      1084502.2    
     39100   334.71395     -50229.961      1688.3992     -39673.838     -15.615173      1088413.9    
     39200   339.09186     -50192.962      1569.1173     -39640.135     -98.930216      1091673.3    
     39300   334.6925      -50156.198      1690.5967     -39598.446     -4.9155433      1088429.1    
     39400   339.43031     -50324.105      1760.111      -39571.318      59.295963      1083836.4    
     39500   339.93609     -50349.465      1737.2832     -39606.106      18.244458      1084041.1    
     39600   335.9826      -50195.196      1689.6374     -39604.224     -34.359314      1086628.4    
     39700   337.0061      -50175.085      1655.393      -39591.241     -26.522322      1087794.5    
     39800   334.63503     -50141.83       1656.7851     -39619.412      6.5729728      1087798.1    
     39900   338.59675     -50227.836      1656.7068     -39600.537     -54.632992      1087171.7    
     40000   334.14846     -50200.671      1731.8594     -39616.07       44.1608        1085058.5    
     40100   336.89208     -50258.781      1714.7039     -39618.647     -1.0056434      1084624.1    
     40200   336.30736     -50255.85       1714.8443     -39631.067      25.509849      1085360.6    
     40300   338.46429     -50261.198      1669.1999     -39624.915      2.1269944      1087440.2    
     40400   333.2477      -50089.735      1660.5548     -39600.303     -21.107462      1089381.3    
     40500   335.59948     -50129          1680.1177     -39557.698      9.8412291      1087694.4    
     40600   337.93435     -50158.252      1682.8051     -39522.403      29.220755      1085550.6    
     40700   341.0545      -50262.377      1707.0036     -39519.666     -1.8930921      1085589.3    
     40800   335.18501     -50076.814      1695.1261     -39501.484      16.425175      1087684.9    
     40900   336.0541      -50079.879      1698.9386     -39477.711     -59.140379      1089975.3    
     41000   339.92677     -50098.071      1662.5079     -39429.734     -5.433945       1088325.8    
     41100   340.36531     -50196.083      1750.485      -39428.15       53.74794       1084923.7    
     41200   342.52201     -50304.678      1740.1198     -39489.972      2.6812415      1085199.3    
     41300   336.40294     -50031.178      1646.7379     -39471.969     -22.142762      1088393.4    
     41400   336.16772     -50047.252      1682.6471     -39458.365     -40.151299      1089873.6    
     41500   339.45985     -50085.488      1664.3377     -39427.691     -30.077146      1088924.3    
     41600   341.06564     -50187.968      1752.6585     -39399.308      4.4516939      1086619.4    
     41700   342.77207     -50138.648      1643.8679     -39413.569      32.161269      1086397.1    
     41800   337.6966      -50044.784      1693.5034     -39404.536     -14.989309      1088619.5    
     41900   334.36847     -49980.083      1719.908      -39401.604     -20.403467      1089527.9    
     42000   341.26329     -50129.409      1695.3947     -39392.775     -2.7368584      1087531.9    
     42100   338.85127     -50089.108      1698.5743     -39413.198      40.631721      1086144.6    
     42200   339.99289     -50121.18       1687.4592     -39426.14      -24.438969      1087178.9    
     42300   337.38292     -50041.672      1694.4497     -39408.788     -21.336157      1088801.7    
     42400   336.77254     -50001.593      1676.3272     -39403.003      32.237482      1087920.6    
     42500   339.82109     -50143.3        1762.8157     -39377.454     -20.433097      1087268.1    
     42600   343.31313     -50195.217      1745.576      -39354.095     -27.689504      1087527.6    
     42700   339.61215     -50121.403      1768.2376     -39355.671     -3.917473       1087532.8    
     42800   341.66367     -50229.477      1799.3165     -39378.315     -48.992812      1087211      
     42900   341.17899     -50151.996      1681.2101     -39431.781      4.7533244      1086628.5    
     43000   342.86877     -50251.508      1735.8375     -39431.898     -55.487823      1087633.7    
     43100   338.10457     -50139.889      1743.1863     -39439.149     -38.178236      1089043.2    
     43200   338.23562     -50097.727      1729.9229     -39406.779     -10.975291      1088831.6    
     43300   338.33569     -49998.241      1668.7871     -39365.778      28.065386      1087507.2    
     43400   343.84755     -50126.119      1687.923      -39328.492      6.370389       1086894.8    
     43500   342.26728     -50072.354      1692.4724     -39312.044     -14.72088       1088613.4    
     43600   337.58464     -49903.449      1687.5865     -39272.084     -24.269367      1090920.6    
     43700   338.92455     -49985.855      1774.0671     -39232.51      -38.970778      1090475.6    
     43800   345.53989     -50041.014      1684.3301     -39202.144      0.62716865     1088547.7    
     43900   342.35198     -49996.795      1703.6209     -39223.093      43.807211      1088356.1    
     44000   342.79708     -50020.627      1730.6254     -39208.127     -81.882644      1090908.4    
     44100   342.72174     -49919.34       1651.3552     -39188.107      3.875326       1090773.9    
     44200   341.89925     -49947.724      1715.5767     -39174.06      -0.62738716     1089029.9    
     44300   343.13911     -49944.923      1685.6822     -39168.306      22.788319      1088115.5    
     44400   337.46146     -49826.845      1714.8747     -39171.455      0.2134069      1089433.9    
     44500   340.75054     -49866.03       1699.4177     -39138.958     -32.986014      1091156      
     44600   339.08045     -49814.02       1723.3391     -39107.274     -10.602918      1091771.1    
     44700   341.83518     -49835.085      1691.4475     -39087.247     -7.1351014      1090765.2    
     44800   345.39718     -49924.716      1721.9934     -39051.963      8.3765506      1089062.5    
     44900   343.20318     -49974.872      1800.6526     -39081.587     -4.9359124      1088722.2    
     45000   339.49        -49849.666      1768.0395     -39087.368      18.750957      1090117.9    
     45100   343.81454     -49886.769      1700.7846     -39077.155     -37.455631      1092330.2    
     45200   337.61068     -49699.732      1684.3034     -39070.96      -33.968373      1093837.4    
     45300   344.34634     -49865.804      1715.8809     -39027.004     -32.546578      1091961.6    
     45400   342.35767     -49822.97       1736.6183     -39016.119      66.586964      1088647.3    
     45500   349.24363     -50035.88       1738.2847     -39044.93      -23.795578      1087725.3    
     45600   342.7539      -49892.506      1755.7763     -39056         -9.5992969      1089997.2    
     45700   342.05792     -49808.96       1712.6689     -39034         -67.683467      1093606.9    
     45800   338.56452     -49661.343      1684.6662     -39006.938     -16.320889      1093678.5    
     45900   341.03437     -49776.142      1767.028      -38973.941      27.908643      1090757.1    
     46000   342.19789     -49787.178      1760.6324     -38960.547      17.359731      1089370.5    
     46100   347.34129     -49881.082      1681.2423     -38997.574     -3.3085725      1090005.1    
     46200   341.65927     -49774.876      1725.9015     -38997.245     -6.8300482      1091273.1    
     46300   344.45416     -49862.684      1728.6932     -39008.215      6.7544402      1090790.1    
     46400   341.47497     -49779.91       1709.4816     -39023.582      8.7840131      1091133.1    
     46500   341.44679     -49819.624      1750.0457     -39023.478     -0.68831373     1092060      
     46600   341.34387     -49764.049      1720.6355     -39000.041     -26.457736      1092356.6    
     46700   341.22689     -49786.538      1772.0377     -38974.227      37.68194       1090976.9    
     46800   345.18184     -49846.728      1745.5411     -38956.132     -24.594971      1091852.6    
     46900   343.46415     -49764.826      1737.2239     -38928.056     -11.591756      1092176.1    
     47000   345.0004      -49796.283      1747.3476     -38908.688     -0.97620689     1091406.9    
     47100   340.70114     -49716.674      1773.0909     -38917.238     -10.167163      1093170.7    
     47200   345.19772     -49733.79       1716.5096     -38871.805     -45.045606      1094615.5    
     47300   344.2622      -49713.95       1723.678      -38869.582     -12.055196      1092263.8    
     47400   345.59492     -49827.976      1795.9579     -38876.02       37.109394      1089289.8    
     47500   348.50326     -49919.668      1784.117      -38902.501     -19.259648      1089766      
     47600   345.46323     -49779.39       1719.6986     -38907.182     -14.287199      1092602.8    
     47700   342.99496     -49704.1        1700.3892     -38916.595     -23.142741      1094399.6    
     47800   345.08358     -49767.593      1715.489      -38909.653     -29.164919      1093602.3    
     47900   346.87274     -49806.221      1735.6663     -38880.703      17.700362      1091380.3    
     48000   349.28686     -49890.931      1748.488      -38888.632      3.6393341      1090795      
     48100   343.48432     -49775.803      1758.268      -38917.454     -1.2262253      1092394.4    
     48200   340.6331      -49609.73       1709.0174     -38876.17      -0.31928837     1094866.7    
     48300   341.91916     -49670.781      1778.4375     -38833.729     -61.899237      1097054.3    
     48400   344.58637     -49622.66       1731.5233     -38761.859     -22.483734      1096338      
     48500   343.2104      -49544.544      1750.364      -38701.356      48.027645      1094986.2    
     48600   352.81816     -49744.55       1737.4805     -38659.703     -26.371899      1095601.3    
     48700   346.23743     -49528.775      1704.7973     -38650.957     -1.4034103      1095938.1    
     48800   351.5072      -49700.767      1739.7382     -38648.394     -25.231255      1096302.3    
     48900   348.68192     -49622.508      1731.4222     -38653.303     -10.461747      1095923.3    
     49000   347.35586     -49665.059      1768.8348     -38693.573     -2.2345529      1094197.4    
     49100   347.8279      -49735.042      1792.5622     -38727.323      15.855738      1092997.2    
     49200   346.74506     -49707.802      1734.5199     -38786.813      4.2908196      1093444.2    
     49300   348.31257     -49746.396      1711.0974     -38807.3       -67.592338      1095319.5    
     49400   346.67424     -49713.323      1693.4071     -38835.323     -11.199763      1093776.6    
     49500   349.11696     -49878.742      1785.2207     -38844.212      38.705559      1090326.4    
     49600   345.89219     -49812.733      1765.8314     -38883.027      31.622751      1091146.1    
     49700   345.25099     -49780.997      1754.7915     -38879.319     -47.499749      1094616.7    
     49800   344.86618     -49700.801      1724.7565     -38839.353     -62.996064      1095750.8    
     49900   343.60668     -49671.4        1777.4159     -38790.661      55.648358      1092708.8    
     50000   344.63136     -49658.62       1753.6559     -38774.494      40.815323      1092730.1    
     50100   346.47268     -49661.012      1732.2793     -38749.48       17.909149      1095552      
     50200   347.74087     -49593.426      1671.6169     -38708.957     -21.946746      1098840.3    
     50300   346.72724     -49596.04       1754.5544     -38655.488     -44.69989       1100263      
     50400   344.64485     -49474.618      1757.0865     -38586.703      25.29098       1098334.1    
     50500   345.53993     -49479.467      1763.3505     -38561.575      31.376968      1095794.1    
     50600   354.29026     -49750.719      1781.4607     -38582.89      -5.7662474      1095257.8    
     50700   349.73879     -49595.203      1725.5738     -38603.846     -36.370615      1097872.9    
     50800   343.83477     -49428.877      1733.6418     -38585.869     -2.2568829      1099565.3    
     50900   345.05464     -49444.751      1735.9965     -38567.07       10.751107      1098898.4    
     51000   345.44746     -49450.772      1759.1387     -38539.542      41.444866      1097422.6    
     51100   348.52876     -49526.186      1752.8254     -38539.635      6.3913878      1097561.1    
     51200   349.43634     -49500.054      1700.2861     -38541.997     -9.9096149      1098937.1    
     51300   346.37495     -49455.036      1719.7356     -38558.637     -1.4506679      1099672.6    
     51400   349.19039     -49570.991      1748.7765     -38570.96      -25.810975      1099312.7    
     51500   350.32239     -49593.128      1737.5221     -38574.361     -4.3368224      1097731.4    
     51600   344.11193     -49481.426      1785.2767     -38579.441      50.050043      1096562.6    
     51700   349.71419     -49592.411      1736.6122     -38590.667     -11.177892      1096568.6    
     51800   349.51931     -49634.898      1788.1427     -38586.787     -23.895563      1097398.9    
     51900   349.6493      -49543.125      1691.4168     -38588.296      15.005308      1097701.9    
     52000   346.47882     -49434.458      1677.6274     -38577.415     -0.92583495     1099472.9    
     52100   345.49635     -49403.744      1710.3485     -38540.009     -16.309462      1100826.4    
     52200   351.86437     -49554.982      1750.3755     -38482.509     -45.283991      1099021.8    
     52300   350.64194     -49466.556      1702.305      -38474.539      58.120911      1096190.1    
     52400   348.6269      -49448.955      1748.1713     -38464.458      38.782301      1096597.6    
     52500   346.87937     -49413.489      1751.9573     -38471.504     -9.4181475      1099959.8    
     52600   344.90102     -49340.402      1763.0248     -38439.763     -51.810188      1102334.5    
     52700   349.17842     -49365.822      1719.7076     -38395.176      7.2193981      1101936.2    
     52800   351.96434     -49477.497      1781.2318     -38371.519     -28.623336      1100138      
     52900   348.65679     -49377.38       1765.175      -38375.088      76.168351      1098514.1    
     53000   345.79444     -49227.361      1709.424      -38356.653      25.586325      1101723.6    
     53100   345.71785     -49176.223      1718.1045     -38298.864     -74.600983      1105707.4    
     53200   344.95879     -49107.274      1752.3509     -38215.778     -34.965196      1105161      
     53300   354.80835     -49284.588      1726.335      -38158.159     -10.174641      1101646.9    
     53400   351.71489     -49264.976      1804.4294     -38142.409      25.50933       1100234.4    
     53500   352.38528     -49258.703      1785.3996     -38137.405     -19.840864      1101743      
     53600   350.61122     -49194.286      1760.8138     -38144.575     -8.860517       1102296.3    
     53700   351.2069      -49265.28       1802.3101     -38158.291     -46.333429      1101977.3    
     53800   349.30436     -49199.988      1778.1427     -38167.572      36.601971      1100559.2    
     53900   351.29803     -49245.534      1761.5712     -38176.87       11.77951       1100726.3    
     54000   349.987       -49236.936      1790.8649     -38173.711     -24.140918      1101543.9    
     54100   353.76256     -49296.405      1764.3852     -38159.633     -5.9269622      1101148.3    
     54200   350.97622     -49232.089      1760.9407     -38172.581     -10.446942      1100752.4    
     54300   350.66989     -49204.088      1741.3344     -38172.302      43.173617      1100958.7    
     54400   354.44755     -49318.38       1749.0613     -38178.784     -44.893439      1102294.4    
     54500   348.55511     -49140.049      1747.6624     -38157.963      13.894934      1103004.8    
     54600   353.65337     -49307.987      1797.9468     -38140.546     -40.909487      1103170.8    
     54700   352.08867     -49229.337      1779.5202     -38121.777     -11.987094      1103011.8    
     54800   353.44947     -49206.186      1716.682      -38125.412      9.8872521      1102585.8    
     54900   349.93977     -49134.645      1765.508      -38098.029     -19.456975      1103073.8    
     55000   349.45255     -49116.278      1789.3132     -38068.765     -23.508843      1102370.4    
     55100   352.81561     -49153.044      1765.3789     -38040.366      17.237948      1100498.8    
     55200   355.76394     -49178.551      1703.3603     -38049.781      24.364311      1099875.7    
     55300   353.39362     -49215.226      1766.0195     -38086.593      22.01011       1101187.9    
     55400   351.068       -49247.859      1827.1864     -38119.673     -94.059403      1103496.1    
     55500   348.60309     -49081.142      1746.9356     -38098.511      5.9798991      1102654.8    
     55600   352.21229     -49274.946      1823.564      -38120.067     -12.061014      1100842.3    
     55700   351.7672      -49223.208      1791.2621     -38112.423      25.936947      1099731.7    
     55800   350.78505     -49108.455      1708.4114     -38106.541      43.237281      1101787.6    
     55900   354.13398     -49168.467      1703.2098     -38083.03      -73.433233      1106169.5    
     56000   348.26907     -48993.604      1739.7739     -38026.984     -41.967212      1107176.7    
     56100   354.32679     -49083.387      1731.1341     -37964.917     -22.988173      1103981.7    
     56200   355.99579     -49173.151      1793.6642     -37947.934      22.844462      1100350.7    
     56300   355.88929     -49179.369      1768.7297     -37981.908      15.846838      1100808.1    
     56400   353.14881     -49108.593      1768.3403     -37984.126     -14.698459      1104494.3    
     56500   350.16484     -49057.095      1807.2119     -37972.812     -32.392265      1107119.5    
     56600   349.15728     -49002.351      1815.5699     -37936.404     -1.413492       1106448.7    
     56700   357.67373     -49134.391      1762.0069     -37896.377      8.3606999      1103741.7    
     56800   358.47989     -49217.065      1813.4905     -37906.209     -5.8103713      1102670.4    
     56900   348.84979     -48973.469      1799.0948     -37932.143      52.643885      1103389.3    
     57000   353.50628     -49055.337      1786.9416     -37902.798     -18.704462      1104992.7    
     57100   352.5051      -48991.13       1764.0002     -37888.057     -23.977388      1105815.6    
     57200   355.85368     -49074.906      1775.2733     -37871.844     -22.29827       1104369.1    
     57300   354.71758     -48977.608      1704.5091     -37875.41       39.455732      1102731.3    
     57400   357.44639     -49145.022      1765.8239     -37909.214     -12.878535      1102378.8    
     57500   354.29718     -49091.148      1770.292      -37934.306     -13.971209      1103054.4    
     57600   356.55315     -49158.472      1756.8075     -37955.345     -26.246536      1103976.6    
     57700   353.24168     -49036.45       1709.0002     -37968.863     -10.981116      1103695.8    
     57800   351.39938     -49083.266      1801.7293     -37971.758      6.6979961      1102633.3    
     57900   355.72701     -49153.437      1750.2876     -37978.718      3.2027244      1101682.3    
     58000   352.46798     -49014.872      1709.874      -37966.909      40.932928      1102386.4    
     58100   351.95548     -48998.763      1708.3499     -37965.902      35.354891      1104273.6    
     58200   353.21936     -49016.289      1725.8368     -37932.457      14.337286      1104776.6    
     58300   354.8926      -49068.921      1764.3496     -37902.246     -12.356435      1104077.5    
     58400   354.09521     -48979.937      1717.4552     -37881.282      71.897553      1103461      
     58500   354.19863     -48995.637      1741.7889     -37869.908     -13.612487      1106213.9    
     58600   353.0183      -48909.401      1727.8194     -37828.913     -61.881857      1108628.1    
     58700   352.97429     -48918.195      1766.263      -37800.428     -12.328508      1106518.6    
     58800   356.91413     -48997.277      1745.9514     -37795.443      70.237258      1102119.8    
     58900   356.67309     -49091.509      1805.491      -37836.521      63.039403      1101686.9    
     59000   355.89454     -49000.165      1728.3941     -37842.901     -41.851882      1105836.6    
     59100   351.83439     -48958.467      1807.2985     -37829.866     -13.245298      1107655.3    
     59200   355.88451     -48958.97       1725.3331     -37805.033      0.62223903     1105471.2    
     59300   357.02307     -48989.71       1742.9206     -37788.02       67.519038      1101687.3    
     59400   355.52974     -48991.491      1788.7631     -37783.522      56.850245      1102632.1    
     59500   349.52338     -48779.383      1750.3444     -37768.962      12.280795      1106693.8    
     59600   357.4497      -48906.66       1698.2815     -37738.306     -30.50773       1107927.6    
     59700   356.66394     -48951.046      1782.981      -37718.81       17.574589      1106342.3    
     59800   357.66631     -48934.351      1761.1662     -37697.374      33.661569      1105153.4    
     59900   357.61833     -48906.85       1743.4926     -37688.818     -15.694266      1107626.7    
     60000   351.42957     -48776.504      1792.0047     -37673.921     -24.569617      1109651.8    
     60100   355.72111     -48832.8        1769.115      -37639.409     -44.458161      1107627.2    
     60200   359.07685     -48878.466      1736.0174     -37629.268      47.894981      1103712      
     60300   357.39808     -48926.618      1797.0566     -37660.857      30.336228      1104404.3    
     60400   357.85799     -48948.224      1778.7953     -37688.54      -16.754355      1106520.6    
     60500   353.88454     -48817.576      1774.7664     -37667.191     -21.183253      1107939.1    
     60600   355.022       -48826.853      1745.6233     -37675.476     -17.729158      1106463.4    
     60700   359.06277     -49007.425      1829.472      -37665.145      62.970864      1101725.7    
     60800   358.77957     -49035.224      1822.2996     -37707.619      79.678793      1101148.5    
     60900   355.09081     -48957.404      1804.0559     -37745.771     -30.629945      1105690.9    
     61000   354.62902     -48901.194      1795.1334     -37710.718     -43.903823      1108770      
     61100   358.41033     -48893.238      1715.3197     -37682.395     -25.982333      1108405.6    
     61200   357.30027     -48855.94       1762.9589     -37626.868      28.119031      1106425.3    
     61300   353.69598     -48761.625      1800.1517     -37590.85       3.6589481      1106089.2    
     61400   358.4936      -48766.289      1724.4459     -37544.114      20.245736      1106885.4    
     61500   357.71562     -48740.186      1748.9753     -37514.094     -16.014847      1108784.4    
     61600   358.51811     -48757.638      1784.5562     -37474.704     -26.595733      1109620.9    
     61700   359.03017     -48743.742      1768.8794     -37462.918      35.179782      1108287.8    
     61800   361.0681      -48882.28       1833.4074     -37482.936     -23.000108      1107172.9    
     61900   360.46691     -48833.654      1795.9528     -37487.693      12.197666      1107163.1    
     62000   359.9136      -48885.866      1824.7457     -37525.771     -46.164955      1108598.5    
     62100   352.40927     -48721.525      1855.5802     -37529.411      21.416403      1108694.4    
     62200   357.5961      -48787.928      1777.2344     -37536.743      20.975593      1108108.9    
     62300   352.62029     -48655.323      1805.153      -37508.046      29.70233       1108190.6    
     62400   360.01012     -48746.042      1738.4796     -37469.656     -9.6795365      1109151.8    
     62500   359.16896     -48718.865      1790.3508     -37412.893     -33.542756      1109971.9    
     62600   355.97355     -48638.083      1809.6021     -37397.517     -7.0508522      1109044.5    
     62700   362.1327      -48698.983      1743.713      -37361.129      12.594937      1108728.7    
     62800   360.95593     -48690.29       1787.2132     -37340.113     -7.5822481      1109606.5    
     62900   362.60952     -48754.4        1809.894      -37337.732     -26.828224      1109898.2    
     63000   357.72061     -48598.6        1771.7743     -37349.576      39.325193      1109742.3    
     63100   359.59293     -48673.871      1821.0722     -37325.945      3.2813187      1110762.8    
     63200   361.06883     -48654.472      1772.1131     -37316.404     -81.235586      1111935.8    
     63300   359.66273     -48670.741      1845.8562     -37296.182      28.67169       1110343.6    
     63400   360.36085     -48607.277      1786.0963     -37273.982      29.100129      1109066.6    
     63500   361.26601     -48680.88       1841.203      -37268.497     -37.386762      1109964.5    
     63600   363.14726     -48678.348      1801.4787     -37255.85      -65.310394      1111408.4    
     63700   360.50979     -48583.111      1805.3197     -37226.646     -11.964944      1111576.4    
     63800   366.55117     -48683.3        1729.6299     -37242.469     -18.559155      1110567.6    
     63900   358.10843     -48605.046      1872.157      -37245.365      6.792754       1109878.1    
     64000   360.24992     -48574.457      1804.1035     -37226.094      46.127438      1109751.8    
     64100   360.58279     -48524.083      1740.0212     -37230.983     -29.480855      1112948      
     64200   353.33312     -48310.871      1769.86       -37180.002     -14.784289      1116139.2    
     64300   360.44327     -48448.788      1786.1728     -37113.233     -29.287655      1115596.4    
     64400   360.8751      -48412.362      1778.4397     -37073.1        67.219672      1112250.9    
     64500   363.60067     -48456.897      1763.2854     -37060.58       47.650704      1111575.5    
     64600   362.37339     -48574.793      1851.4782     -37122.797     -30.623644      1112781.7    
     64700   363.45002     -48554.727      1807.0114     -37118.674      11.441607      1112871      
     64800   356.75133     -48412.454      1805.4142     -37155.47       11.266118      1113177.3    
     64900   360.53719     -48437.143      1732.2454     -37153.027      4.8399784      1114068.9    
     65000   360.43154     -48420.457      1731.9744     -37139.411     -32.682233      1115008.2    
     65100   362.55137     -48512.775      1811.9029     -37095.639     -0.32514954     1113585.8    
     65200   361.08771     -48459.27       1824.1525     -37068.662      51.53378       1112188.2    
     65300   359.80276     -48420.242      1838.7362     -37049.093      38.31975       1113179.5    
     65400   360.66399     -48432.549      1843.3159     -37034.004     -33.990753      1116401.5    
     65500   362.43088     -48415.293      1820.8382     -36992.414     -51.320271      1118207      
     65600   360.48855     -48363.202      1845.7936     -36966.827      5.772053       1116698.7    
     65700   366.51034     -48490.11       1807.5119     -36972.478      37.311136      1113898.6    
     65800   364.7496      -48501.827      1794.9117     -37043.443      6.9201188      1114785.8    
     65900   360.29596     -48394.88       1823.0563     -37026.344     -16.401806      1117081.8    
     66000   361.80135     -48421.93       1835.3642     -37001.203     -79.490876      1118659.3    
     66100   362.40886     -48335.541      1773.6434     -36960.44       14.272374      1116436.1    
     66200   364.79754     -48440.053      1821.9681     -36953.343      6.5147561      1114132.2    
     66300   367.50941     -48553.131      1826.8907     -36989.652     -25.510483      1114346.7    
     66400   361.8372      -48343.975      1774.8156     -36982.847     -0.63741619     1116458.8    
     66500   360.92641     -48313.545      1785.4573     -36965.905     -6.6157847      1118450      
     66600   365.79782     -48419.042      1795.7096     -36932.09      -44.285433      1118434.3    
     66700   365.41952     -48389.895      1788.7018     -36919.973     -17.329541      1116364.2    
     66800   362.2923      -48321.078      1813.0718     -36909.637      72.216326      1114077.8    
     66900   365.3409      -48397.963      1806.0885     -36912.738      12.315774      1115636.4    
     67000   364.38314     -48366.067      1802.4081     -36909.896     -57.649389      1118351.7    
     67100   366.50021     -48379.526      1780.5317     -36889.144     -17.930378      1117898      
     67200   365.78903     -48387.725      1806.4096     -36890.306     -4.9141429      1115761      
     67300   364.00864     -48338.402      1815.7403     -36878.821      23.215477      1114956.3    
     67400   364.04454     -48303.552      1784.7479     -36874.012      6.500572       1116153.8    
     67500   365.24746     -48371.645      1840.6713     -36854.312     -77.021205      1118612.4    
     67600   367.38254     -48386.473      1827.9914     -36825.254     -76.089909      1118472.5    
     67700   367.84674     -48424.794      1863.363      -36815.906     -2.2533217      1115562.3    
     67800   366.15708     -48459.415      1910.5081     -36848.147      5.4846966      1114428.1    
     67900   363.77288     -48389.476      1891.5619     -36860.319     -46.381035      1117662.8    
     68000   362.34132     -48229.902      1785.5482     -36844.686     -35.911334      1119829.9    
     68100   367.72418     -48337.287      1766.5492     -36828.459      15.164449      1117925.1    
     68200   365.76122     -48364.726      1845.515      -36828.938     -0.3132168      1115390.8    
     68300   365.06347     -48325.262      1835.8123     -36817.662      9.9626611      1115424.7    
     68400   362.73115     -48298.088      1858.7704     -36829.322     -7.8857241      1117193.1    
     68500   361.02221     -48162.082      1790.3164     -36807.045      22.794153      1119347.1    
     68600   366.75567     -48310.488      1816.5083     -36777.36      -61.283346      1120428.2    
     68700   364.3787      -48208.716      1800.1566     -36754.914      18.549356      1117592      
     68800   365.39312     -48299.751      1866.7693     -36752.462      44.847264      1115332      
     68900   364.83267     -48324.084      1891.4083     -36767.004      18.190021      1116762.4    
     69000   364.78167     -48242.609      1836.4228     -36741.865      2.9408638      1119364.7    
     69100   363.4377      -48230.748      1879.2703     -36722.763     -35.153647      1122040.3    
     69200   360.89921     -48109.648      1874.6845     -36673.502     -55.899107      1122511.5    
     69300   367.52904     -48163.59       1793.5233     -36632.959      23.860032      1119449.5    
     69400   365.5135      -48189.335      1869.0548     -36636.57       60.030697      1117526.1    
     69500   368.47866     -48182.107      1781.7054     -36638.134      42.306996      1119530      
     69600   360.91533     -48017.265      1828.3944     -36626.982     -61.387372      1124004.2    
     69700   361.43393     -47954.074      1801.398      -36577.048     -0.34508539     1123628.2    
     69800   364.78928     -48071.04       1852.37       -36554.148      43.756063      1120114      
     69900   369.24485     -48140.23       1798.5589     -36559.105      38.844657      1118751.4    
     70000   367.27942     -48106.908      1792.24       -36584.173      24.266645      1119628.9    
     70100   371.44048     -48197.751      1782.3921     -36574.623     -22.266101      1120756.1    
     70200   368.25643     -48132.413      1789.6141     -36586.419      9.4550051      1120168      
     70300   372.64679     -48266.248      1787.1345     -36606.419     -5.4115821      1119449      
     70400   364.24578     -48086.732      1818.3344     -36618.274      45.179946      1119300.7    
     70500   366.20515     -48134.453      1799.3111     -36633.108      12.258904      1119607.9    
     70600   369.40297     -48332.245      1873.652      -36671.838     -14.772218      1119510.3    
     70700   369.48033     -48264.293      1778.1793     -36697.308     -41.168329      1119216.4    
     70800   369.56954     -48251.512      1763.1083     -36697.235      14.483842      1118007.4    
     70900   362.46074     -48189.479      1894.3454     -36692.302      1.2239013      1119481.5    
     71000   365.48248     -48175.518      1860.7282     -36631.902     -7.2680369      1120513.2    
     71100   369.48332     -48197.144      1797.3598     -36610.9        13.364789      1119509.1    
     71200   366.70108     -48161.748      1872.8976     -36573.678      9.2930181      1119320.8    
     71300   370.70543     -48198.626      1812.6336     -36564.73       23.133001      1119973.5    
     71400   368.48016     -48181.622      1875.9297     -36543.385     -19.078871      1121605.7    
     71500   365.08659     -48053.766      1885.797      -36495.569     -27.564216      1122944.8    
     71600   367.09405     -48107.1        1892.0619     -36489.454     -20.248465      1122252.7    
     71700   367.0883      -48139.5        1922.8744     -36491.194      20.94087       1119483.3    
     71800   369.5323      -48150.005      1875.5131     -36484.31       19.129634      1118263.2    
     71900   372.18414     -48236.127      1827.4311     -36548.258     -23.33377       1118946.1    
     72000   366.08366     -48097.434      1835.839      -36562.78       13.763661      1120376.5    
     72100   366.65618     -48060.018      1805.2295     -36540.805     -15.716378      1122788.8    
     72200   368.85914     -48087.054      1794.0194     -36520.687     -61.504666      1123320.4    
     72300   367.79609     -48073.482      1867.9968     -36461.302     -4.3288509      1120331      
     72400   372.43773     -48144.846      1808.5313     -36469.159      33.353157      1117823.8    
     72500   370.27495     -48086.174      1801.021      -36475.296      24.145833      1118945.8    
     72600   366.41807     -47963.8        1803.6322     -36452.493      1.9103341      1121585.6    
     72700   363.52134     -47935.578      1864.8356     -36439.811     -10.853223      1123017.1    
     72800   370.8408      -48095.835      1853.9842     -36417.003     -55.98509       1122015.1    
     72900   370.19158     -48093.678      1869.5119     -36416.518      15.614169      1119269.4    
     73000   370.41831     -48103.938      1866.0788     -36424.204      17.35173       1118418.8    
     73100   367.36242     -47993.145      1814.7966     -36445.654      26.898388      1120208.9    
     73200   366.01293     -47975.752      1845.4627     -36433.348     -12.920426      1123025.2    
     73300   371.70647     -48058.744      1808.1227     -36402.839     -92.712114      1124433      
     73400   368.39126     -47985.052      1877.5143     -36347.586      13.260021      1122730.5    
     73500   373.92533     -48123.274      1875.1966     -36341.509     -1.1302556      1120898.5    
     73600   371.98973     -48029.937      1838.6501     -36336          14.902999      1120234.6    
     73700   370.71652     -48100.438      1907.9516     -36370.931     -0.71248186     1120919.6    
     73800   370.68494     -48068.763      1869.7477     -36378.297     -20.539411      1122401.3    
     73900   366.6706      -47974.29       1880.5668     -36379.357      14.626804      1123296.4    
     74000   369.28186     -47925.575      1789.9608     -36352.068     -19.53253       1124477.1    
     74100   368.95196     -47894.679      1818.4114     -36301.461      2.2448808      1124964.1    
     74200   366.68139     -47811.992      1856.7995     -36240.541      28.746357      1124764.8    
     74300   367.15368     -47750.091      1839.0739     -36183.853      13.048558      1124783.5    
     74400   373.831       -47885.754      1840.312      -36141.373     -7.7402527      1125243.2    
     74500   375.52551     -47869.455      1776.3453     -36144.148      2.2037246      1126195.3    
     74600   375.47631     -47934.964      1845.0387     -36142.266     -55.995531      1126852.2    
     74700   375.48392     -47943.055      1869.4346     -36125.76      -49.583299      1125973.6    
     74800   373.37708     -47909.418      1886.917      -36130.457     -38.592187      1124548.5    
     74900   372.01388     -47841.433      1826.355      -36159.151      58.755969      1123747.3    
     75000   370.37176     -47802.232      1810.9654     -36178.845      2.3053228      1125690      
     75100   367.05384     -47700.52       1802.0567     -36173.944      0.62033245     1126634.7    
     75200   374.96684     -47943.553      1843.8008     -36165.591     -30.530438      1124918.5    
     75300   368.59787     -47768.554      1837.0069     -36166.121      63.19179       1123063.7    
     75400   369.64824     -47820.088      1838.8148     -36188.02       14.52161       1123845      
     75500   366.20193     -47711.319      1856.2072     -36153.163      29.210733      1125632.6    
[...]
   3082400   297.12455     -52336.422      1508.5022     -42956.068     -32.354383      1049570      
   3082500   299.30148     -52473.507      1596.3887     -42947.593     -94.182147      1050817.6    
   3082600   297.17293     -52357.947      1538.5365     -42946.277      6.938028       1048796.9    
   3082700   300.7947      -52508.29       1580.7594     -42958.444     -2.708091       1046197.5    
   3082800   297.49406     -52476.383      1596.6625     -42998.08       13.576844      1046142.8    
   3082900   295.06622     -52354.957      1520.0273     -43017.61       49.383912      1047741.4    
   3083000   296.06504     -52384.053      1522.0596     -43018.212     -25.767381      1049465.2    
   3083100   297.12626     -52394.221      1518.7065     -43003.618     -28.246061      1048068.1    
   3083200   297.23904     -52394.065      1542.7527     -42976.428      88.984128      1045104.6    
   3083300   301.29195     -52553.017      1569.5844     -43001.172      1.3079108      1045816.2    
   3083400   298.86423     -52461.415      1530.173      -43013.301     -13.463399      1048580.7    
   3083500   295.50808     -52352.848      1541.668      -42982.154     -1.8930904      1049510.9    
   3083600   296.90051     -52407.8        1548.9149     -42992.97       16.971415      1047827.6    
   3083700   300.57224     -52536.286      1566.56       -43006.533      11.177554      1046676.1    
   3083800   298.93846     -52533.307      1593.0297     -43020.369      1.1666035      1046899.5    
   3083900   299.52057     -52563.441      1561.6617     -43066.449     -23.983155      1046861.5    
   3084000   299.24862     -52593.625      1572.9426     -43092.557     -10.119671      1045686.8    
   3084100   298.1622      -52566.392      1531.946      -43135.104     -12.996258      1045406.8    
   3084200   297.8403      -52629.463      1583.6999     -43154.949     -25.74093       1045382.6    
   3084300   298.3477      -52590.257      1556.6946     -43129.305     -8.5102213      1045540.1    
   3084400   298.20432     -52576.78       1554.8991     -43121.423      18.237864      1046967.9    
   3084500   293.60735     -52402.648      1536.6518     -43087.328     -19.915322      1049268.1    
   3084600   296.55115     -52421.652      1529.108      -43035.884     -23.940411      1049403.8    
   3084700   300.39818     -52502.057      1548.1669     -42995.309     -3.4444344      1048039.4    
   3084800   296.38501     -52370.609      1547.8808     -42970.47       32.987191      1047114.6    
   3084900   299.16952     -52419.307      1530.5568     -42962.721      12.678846      1047460.7    
   3085000   298.84078     -52480.767      1579.2658     -42984.181     -21.543802      1048688.6    
   3085100   294.06594     -52358.614      1597.7002     -42970.095     -23.092353      1049203      
   3085200   299.99984     -52424.822      1516.0436     -42960.751     -31.829111      1049269.7    
   3085300   297.05297     -52446.389      1610.164      -42966.27      -16.626269      1048657.6    
   3085400   298.18871     -52451.804      1603.0162     -42948.743     -10.469272      1048382.6    
   3085500   296.7817      -52421.938      1623.4367     -42935.734     -27.826517      1049692.8    
   3085600   298.52411     -52426.851      1594.7877     -42923.133     -33.656126      1050324.3    
   3085700   298.61019     -52388.303      1584.2698     -42892.822      9.3273336      1050080.7    
   3085800   298.24871     -52311.721      1521.0286     -42889.058      9.7910081      1050002.5    
   3085900   298.0423      -52341.594      1577.1046     -42868.324     -24.492036      1050292.7    
   3086000   300.06546     -52377.999      1553.2188     -42875.014     -12.2892        1049504.1    
   3086100   296.80252     -52352.882      1586.006      -42903.557      14.64058       1048879.2    
   3086200   298.44419     -52371.069      1553.3921     -42910.864     -6.5376763      1048358.3    
   3086300   297.77829     -52405.718      1564.89       -42951.657      5.6945392      1047483.6    
   3086400   298.781       -52430.884      1520.1834     -42994.964      25.842258      1047745.3    
   3086500   297.55491     -52432.335      1554.5202     -42994.561      5.7382571      1049128.1    
   3086600   292.34836     -52317.854      1568.2974     -43004.243     -23.92048       1050237.7    
   3086700   299.97024     -52463.64       1540.1836     -42976.213     -39.950593      1048845.5    
   3086800   301.6283      -52530.989      1568.5739     -42971.244     -10.367106      1046256.8    
   3086900   299.32708     -52440.833      1505.7696     -43004.86       84.645736      1045112.3    
   3087000   296.09036     -52428.67       1560.387      -43023.831      15.080435      1048928.6    
   3087100   294.19361     -52267.055      1510.6758     -42962.179     -73.830635      1053831.2    
   3087200   299.92273     -52399.645      1538.7195     -42914.941     -81.572965      1052695      
   3087300   300.78103     -52438.937      1596.7589     -42873.454      29.343585      1046994.5    
   3087400   300.67508     -52467.088      1592.7811     -42908.39       87.35245       1044911.3    
   3087500   296.87105     -52367.408      1548.0026     -42954.27       0.35806773     1048605.5    
   3087600   298.77909     -52296.593      1486.931      -42893.976     -49.395551      1051559.6    
   3087700   297.06225     -52287.599      1540.0253     -42877.372     -32.09283       1051084.7    
   3087800   295.78874     -52209.09       1514.7356     -42857.893      84.015331      1048707.1    
   3087900   298.76649     -52379.459      1600.2693     -42863.838     -33.400082      1049332.3    
   3088000   297.91906     -52340.631      1556.8663     -42890.864     -5.7813096      1049001.6    
   3088100   301.50967     -52465.436      1575.4014     -42902.007     -5.7925565      1047625.1    
   3088200   296.21484     -52380.327      1594.5632     -42938.014      30.217001      1047546.5    
   3088300   296.83148     -52393.631      1550.627      -42978.917     -16.171784      1047913.3    
   3088400   295.70076     -52394.389      1570.5698     -42989.689      18.356882      1046908.3    
   3088500   296.77104     -52464.967      1606.7621     -42995.719      32.583312      1047030.5    
   3088600   297.64317     -52449.765      1574.3163     -42989.857     -35.431872      1049195.4    
   3088700   298.83983     -52404.898      1523.8213     -42963.782     -68.583467      1050120.2    
   3088800   299.55414     -52434.04       1537.2971     -42960.523      18.283452      1047512.2    
   3088900   297.73873     -52458.795      1608.8242     -42961.848      58.058531      1046882.6    
   3089000   295.59993     -52348.716      1549.3123     -42967.945      2.1204696      1050163.9    
   3089100   296.8413      -52352.32       1541.0044     -42946.968     -73.217015      1051895.2    
   3089200   299.2189      -52443.078      1560.2929     -42955.447      14.891955      1048580.2    
   3089300   301.5416      -52554.277      1576.356      -42989.047      39.493739      1045918.6    
   3089400   299.04471     -52520.231      1557.9175     -43039.591     -1.3871364      1047206.8    
   3089500   297.1637      -52398.834      1540.5848     -42985.361     -34.89303       1049317.8    
   3089600   298.91557     -52456.483      1535.9302     -43001.251     -24.084813      1049076.1    
   3089700   299.87199     -52525.732      1599.103      -42981.988     -8.8095714      1048564.1    
   3089800   297.60797     -52424.871      1581.8054     -42958.406      22.883823      1049085.6    
   3089900   298.12183     -52399.232      1563.1        -42937.859     -14.864417      1050712      
   3090000   301.62235     -52466.374      1550.2049     -42925.155     -58.420641      1050696.6    
   3090100   302.56729     -52575.674      1613.9709     -42945.655     -24.080276      1048103.4    
   3090200   299.42166     -52544.235      1587.7897     -43023.736      27.531844      1047024.9    
   3090300   298.51076     -52549.637      1606.3391     -43034.721     -16.25278       1048883.9    
   3090400   294.00487     -52349.72       1586.1469     -42974.373     -25.241289      1051097      
   3090500   299.19781     -52452.563      1534.3411     -42991.443     -31.613005      1050753.8    
   3090600   301.50309     -52571.847      1586.5275     -42997.465      19.963298      1047951.2    
   3090700   298.15863     -52575.944      1635.3578     -43041.339      33.067145      1046760.9    
   3090800   295.95034     -52462.445      1595.2023     -43026.5        7.3458318      1048571.2    
   3090900   296.8827      -52467.014      1574.4885     -43027.082     -41.458014      1050697.6    
   3091000   298.19971     -52468.209      1557.7006     -43010.172     -24.247099      1050533.2    
   3091100   296.90007     -52432.246      1591.1461     -42975.196      13.252857      1048665      
   3091200   298.63387     -52459.661      1561.3955     -42986.427      41.821449      1047503.4    
   3091300   299.35634     -52536.732      1605.4049     -43000.348     -4.8594794      1048436.7    
   3091400   297.84169     -52438.27       1551.9776     -42995.442     -22.997419      1049991.5    
   3091500   296.33245     -52418.723      1550.2845     -43017.572     -21.990022      1050269.3    
   3091600   301.00046     -52535.832      1533.5035     -43027.79       2.9030261      1048678.9    
   3091700   299.94487     -52547.942      1564.2302     -43037.141      8.2214719      1048073      
   3091800   295.76138     -52393.772      1516.4617     -43041.574      17.202572      1049125.3    
   3091900   298.72747     -52514.686      1548.7095     -43051.658     -23.09615       1049385.4    
   3092000   294.62128     -52403.336      1561.647      -43036.158      1.6267576      1049458      
   3092100   298.64667     -52511.843      1592.1901     -43007.475     -34.935194      1049922.9    
   3092200   297.68048     -52442.369      1575.1384     -42980.651     -15.893868      1049104.3    
   3092300   299.71854     -52474.187      1545.4437     -42988.168      34.927458      1047756.4    
   3092400   299.6421      -52457.061      1520.7633     -42997.748      6.259917       1049307.6    
   3092500   296.60194     -52344.986      1515.3108     -42971.669     -35.539848      1051336.7    
   3092600   297.9044      -52428.321      1561.8026     -42974.006     -17.774687      1049520.5    
   3092700   301.28088     -52588.939      1613.2087     -42993.764      36.546638      1045574.5    
   3092800   298.86188     -52563.427      1588.4246     -43057.123      46.4222        1045138.9    
   3092900   295.23359     -52459.913      1571.5478     -43066.612     -22.333923      1048799.8    
   3093000   299.24242     -52462.374      1531.4124     -43003         -89.19739       1052186.2    
   3093100   297.75369     -52429.406      1549.2913     -42991.595     -52.099314      1051102.8    
   3093200   298.7867      -52490.517      1622.4693     -42952.16       34.657553      1046454.4    
   3093300   301.49896     -52629.883      1656.085      -42986.053      23.817475      1044738.7    
   3093400   296.21439     -52465.88       1593.3292     -43024.813     -7.033582       1047891.1    
   3093500   298.15123     -52477.007      1608.0344     -42969.921     -82.619902      1050686.8    
   3093600   298.53666     -52452.707      1570.6965     -42972.748     -21.032184      1049055.1    
   3093700   299.419       -52501.623      1608.696      -42960.288      37.314756      1046346.9    
   3093800   299.44216     -52474.582      1586.202      -42955.128      16.595393      1046969.3    
   3093900   295.25056     -52388.973      1611.4381     -42955.332     -33.748302      1049562.3    
   3094000   292.43789     -52253.016      1582.472      -42922.858      2.6276306      1050752.8    
   3094100   299.32852     -52362.858      1523.3745     -42909.241     -24.53302       1049674.9    
   3094200   300.34602     -52404.735      1548.1104     -42899.426      50.381368      1047500.2    
   3094300   298.67697     -52444.088      1589.5044     -42941.603      28.808099      1047878.2    
   3094400   297.86958     -52394.429      1568.0962     -42934.743     -45.190202      1049780.7    
   3094500   297.60501     -52416.806      1588.9574     -42943.268     -14.82003       1048467.5    
   3094600   297.21503     -52386.446      1530.9792     -42981.218      73.340324      1046466.1    
   3094700   301.90412     -52564.783      1553.8509     -43012.453     -17.006457      1047485.4    
   3094800   295.68018     -52394.422      1567.8818     -42992.955     -27.90127       1049174.4    
   3094900   297.29806     -52461.319      1594.2697     -42990.601     -35.582856      1048918.2    
   3095000   298.68964     -52405.083      1522.5567     -42969.21       67.807018      1047621.5    
   3095100   300.77139     -52493.456      1579.2317     -42945.756     -66.773789      1049518.6    
   3095200   295.50682     -52343.113      1568.3982     -42945.722      15.004602      1049256.6    
   3095300   303.03995     -52537.992      1565.2173     -42944.204     -17.768281      1048535.3    
   3095400   298.4333      -52411.461      1548.0115     -42956.925     -35.979567      1049512      
   3095500   299.09832     -52421.375      1548.7243     -42948.508     -31.299875      1049620.9    
   3095600   296.03519     -52407.424      1614.4465     -42949.987     -10.405082      1049178.5    
   3095700   297.31936     -52353.117      1543.0957     -42933.008      27.95569       1049366.3    
   3095800   298.63004     -52417.581      1579.9296     -42925.914     -17.513062      1049894      
   3095900   297.34431     -52352.484      1564.5748     -42910.236     -28.560363      1050781.6    
   3096000   297.80401     -52379.159      1593.3282     -42895.978     -13.340552      1050575.7    
   3096100   297.38902     -52395.242      1619.5608     -42896.823     -14.205004      1049920      
   3096200   299.4934      -52405.314      1586.9634     -42883.74      -21.0318        1049806.6    
   3096300   299.13896     -52374.798      1562.6706     -42886.907     -16.593785      1049731.1    
   3096400   297.5033      -52395.322      1611.6563     -42901.78      -41.629813      1049415.1    
   3096500   297.46814     -52428.11       1632.9312     -42914.224     -23.006118      1048755.8    
   3096600   295.60768     -52342.561      1585.081      -42925.816      2.8704882      1048600.7    
   3096700   295.04478     -52318.067      1574.7144     -42926.602      27.962955      1048650      
   3096800   297.46828     -52347.699      1534.1348     -42932.606      1.5488427      1049084      
   3096900   300.3856      -52369.425      1502.0027     -42909.174     -19.071633      1049954      
   3097000   295.6823      -52288.773      1538.3441     -42916.787     -29.462226      1050288.2    
   3097100   301.43978     -52460.256      1558.298      -42915.781     -29.357016      1048166.9    
   3097200   298.04977     -52407.171      1556.046      -42954.761      28.609168      1046663.4    
   3097300   294.51647     -52349.978      1569.9866     -42977.237      55.995711      1047765.1    
   3097400   295.59655     -52320.94       1521.5304     -42968.04      -42.179691      1050692.7    
   3097500   293.66847     -52365.504      1639.8293     -42945.387     -72.986426      1050328.6    
   3097600   300.35247     -52429.239      1580.9743     -42890.895      17.497977      1046526.3    
   3097700   298.51852     -52422.904      1615.9622     -42898.159      68.630696      1045868.8    
   3097800   296.80084     -52341.07       1568.9598     -42908.835     -3.5465767      1049673      
   3097900   293.87805     -52168.983      1518.4908     -42864.652     -35.444026      1052425.3    
   3098000   296.02278     -52252.91       1564.8461     -42845.403     -0.7390704      1050296.2    
   3098100   301.87793     -52480.344      1625.7591     -42856.8        10.400034      1046028.7    
   3098200   303.0944      -52558.136      1580.1555     -42947.967      33.19158       1045166.2    
   3098300   296.43215     -52464.989      1541.0869     -43070.395     -18.57632       1048893.1    
   3098400   296.19846     -52378.477      1560.0682     -42971.093     -36.783557      1051120.6    
   3098500   299.05025     -52412.429      1557.8177     -42931.742     -27.791331      1049631.1    
   3098600   299.4432      -52436.563      1593.3425     -42909.94       10.80995       1047295.4    
   3098700   300.06141     -52492.778      1612.4465     -42930.673     -13.898562      1046437.2    
   3098800   296.62328     -52351.826      1540.6629     -42952.592      52.197666      1047667.1    
   3098900   296.31256     -52369.933      1593.9246     -42925.67      -37.9548        1050681.3    
   3099000   294.74069     -52326.182      1603.8565     -42913.631      5.8464177      1050445.2    
   3099100   300.29645     -52426.622      1562.3718     -42908.364     -6.9381038      1048822      
   3099200   296.4316      -52355.384      1602.7249     -42899.166      32.18159       1048757.5    
   3099300   298.63667     -52406.952      1599.7159     -42895.324     -31.436073      1050638.3    
   3099400   295.84887     -52350.765      1614.7002     -42898.011     -29.498718      1051516.5    
   3099500   295.88789     -52313.397      1583.2879     -42891.021      0.91801564     1050597.2    
   3099600   299.12779     -52360.116      1533.7132     -42901.478      9.0184275      1049032.3    
   3099700   298.64331     -52407.459      1589.1175     -42906.252      27.872478      1048154.8    
   3099800   297.98297     -52384.809      1568.9695     -42921.246      37.394801      1048827.5    
   3099900   297.54967     -52341.376      1547.2267     -42911.035     -13.879368      1051006.9    
   3100000   296.13962     -52304.899      1557.1792     -42901.962     -21.532371      1050836.4    
Loop time of 2011.68 on 8 procs for 1000000 steps with 8889 atoms

Performance: 858.986 ns/day, 0.028 hours/ns, 497.098 timesteps/s
100.0% CPU use with 8 MPI tasks x 1 OpenMP threads

MPI task timing breakdown:
Section |  min time  |  avg time  |  max time  |%varavg| %total
---------------------------------------------------------------
Pair    | 653.21     | 678.2      | 693.73     |  60.4 | 33.71
Bond    | 21.163     | 22.392     | 24.049     |  18.4 |  1.11
Kspace  | 868.76     | 885.69     | 912.33     |  55.2 | 44.03
Neigh   | 201.36     | 201.66     | 202.01     |   1.7 | 10.02
Comm    | 101.24     | 103.55     | 106.51     |  16.5 |  5.15
Output  | 0.62876    | 0.64059    | 0.71266    |   3.4 |  0.03
Modify  | 108.38     | 111.11     | 113.1      |  17.2 |  5.52
Other   |            | 8.429      |            |       |  0.42

Nlocal:        1111.12 ave        1116 max        1098 min
Histogram: 1 0 0 1 0 0 0 0 4 2
Nghost:         2518.5 ave        2531 max        2499 min
Histogram: 1 0 0 1 1 1 0 1 1 2
Neighs:        35484.2 ave       35784 max       34920 min
Histogram: 1 0 0 0 2 0 0 2 1 2

Total # of neighbors = 283874
Ave neighs/atom = 31.935426
Ave special neighs/atom = 0.67499156
Neighbor list builds = 100000
Dangerous builds = 100000

write_data end-cont.data
System init for write_data ...
PPPM initialization ...
  using 12-bit tables for long-range coulomb (src/kspace.cpp:342)
  G vector (1/distance) = 0.14204725
  grid = 16 16 16
  stencil order = 4
  estimated absolute RMS force accuracy = 0.0038430121
  estimated relative force accuracy = 1.1573117e-05
  using double precision KISS FFT
  3d grid and FFT values/proc = 2197 512
Generated 0 of 6 mixed pair_coeff terms from geometric mixing rule
WARNING: Not all mixed pair coeffs generated from mixing. Use write_data with 'pair ij' option to store all pair coeffs. (src/write_data.cpp:309)
Total wall time: 1:44:07
