LAMMPS (29 Oct 2020)
OMP_NUM_THREADS environment is not set. Defaulting to 1 thread. (src/comm.cpp:94)
  using 1 OpenMP thread(s) per MPI task
units 		          lj
dimension	          3
boundary	          p p p
neighbor	          0.3 bin
neigh_modify        every 1 check yes

atom_style	        mdpd


# variable Lz equal 60
#
# region     mdpd     block -10 10 -10 10 0 ${Lz} units box
# create_box          1 mdpd
#
# region     slab     block -10 10  -10 10  20 40
# create_atoms        1 random 57900 2021 slab       # A =-50
# # create_atoms        1 random 51000 2021 slab      # A =-40


read_data  initial_npt_40.data
Reading data file ...
  orthogonal box = (-9.8906953 -9.8906953 0.0000000) to (9.8906953 9.8906953 60.000000)
  1 by 2 by 6 MPI processor grid
  reading atoms ...
  51000 atoms
  reading velocities ...
  51000 velocities
  read_data CPU = 0.104 seconds

pair_style          hybrid/overlay mdpd/rhosum mdpd 1.0 1.0 9872598
pair_coeff          1 1 mdpd/rhosum  0.75
pair_coeff          1 1 mdpd         -40 25 4.5 1.0 0.75
mass                1 1.0


compute             mythermo all temp
compute             myP all pressure mythermo


variable gamma equal "(60*0.5) * (pzz - (pxx + pyy)*0.5)"

thermo              100
thermo_modify       temp mythermo
thermo_modify       flush yes
thermo_style custom v_gamma pxx pyy pzz temp
WARNING: New thermo_style command, previous thermo_modify settings will be lost (src/output.cpp:693)

velocity            all create 1.0 2093 loop local dist gaussian
comm_modify         vel yes
fix         mvv     all mvv/dpd 0.65

# min_style cg
# minimize 0 0 1000 10000

# compute den all chunk/atom bin/3d z 20 20 x -10 20 y -10 20 discard yes
# # compute den all chunk/atom bin/cylinder z lower 4 0 0 0 6 4 discard yes
# fix den all ave/chunk 1 100 100 den density/number file den.txt

dump        mydump  all atom 1000 sim.lammpstrj

timestep            0.01
run                 50000
Neighbor list info ...
  update every 1 steps, delay 10 steps, check yes
  max neighbors/atom: 2000, page size: 100000
  master list distance cutoff = 1.3
  ghost atom cutoff = 1.3
  binsize = 0.65, bins = 31 31 93
  2 neighbor lists, perpetual/occasional/extra = 2 0 0
  (1) pair mdpd/rhosum, perpetual
      attributes: full, newton on
      pair build: full/bin/atomonly
      stencil: full/bin/3d
      bin: standard
  (2) pair mdpd, perpetual, half/full from (1)
      attributes: half, newton on
      pair build: halffull/newton
      stencil: none
      bin: none
Per MPI rank memory allocation (min/avg/max) = 5.286 | 8.272 | 13.72 Mbytes
v_gamma Pxx Pyy Pzz Temp 
   2.0215966  -0.56219825   -0.5567831  -0.49210412            1 
   10.836898    -1.110072   -1.1002626  -0.74393736    1.0267929 
   8.9992128   0.31135904   0.40440941   0.65785798    1.0236182 
    8.749187    1.3469947    1.3151163     1.622695    1.0213031 
   11.957494  -0.30684435  -0.16924775   0.16053709    1.0245512 
   7.5561831   -1.5854017     -1.77784   -1.4297481    1.0181566 
   11.691509   -1.4473544   -1.4344117   -1.0511661    1.0240219 
   7.6349348   0.04885488   0.11675551   0.33730302    1.0219399 
   9.3052423    1.0643644    1.0062625    1.3454882    1.0139095 
    2.506037  0.091312545   0.10818721   0.18328445    1.0200679 
   5.6435536   -1.2405876   -1.2228071   -1.0435789    1.0101269 
   8.3944134   -1.3543931    -1.386678   -1.0907218    1.0203236 
   6.8960653  -0.16861489  -0.28579747 0.0026626638    1.0170763 
    10.92645   0.66997662   0.67130331     1.034855    1.0199801 
   7.9773985   0.22349599    0.2922932   0.52380788    1.0109401 
   3.8820938  -0.66982358  -0.79689093  -0.60395413    1.0101202 
   9.5813392   -1.3016358   -1.1239517  -0.89341575    1.0160752 
   10.214956    -0.691427  -0.68827273  -0.34935135    1.0223618 
   15.535526   0.31721823   0.15733059   0.75512527    1.0185214 
   10.115491   0.50220031   0.51242775   0.84449706     1.019377 
     10.0927  -0.57525631  -0.67026488  -0.28633726    1.0243571 
   8.9192225   -1.1680629   -1.2308011  -0.90212458    1.0160548 
   8.3092792  -0.68768661  -0.74335921  -0.43854694    1.0153777 
   9.5092573   0.28310148   0.17990315   0.54847756    1.0174972 
   8.6610294   0.31636384   0.32362449   0.60869515    1.0172418 
    7.872221  -0.28565737  -0.28218245 -0.021512543    1.0186734 
   5.8053284  -0.90503606  -0.73230255  -0.62515836    1.0118503 
   10.498453  -0.76165143   -1.0031407   -0.5324476    1.0189801 
   3.3101668   0.19613172  0.035640157   0.22622483    1.0191445 
   6.3021812    0.3048241   0.15051876   0.43774414    1.0236083 
   9.8544157  -0.15949835  -0.27682913   0.11031678    1.0222385 
   10.005151   -0.8612367  -0.78342535  -0.48882599    1.0183679 
   6.3435726  -0.83207267  -0.85420578  -0.63168681    1.0184334 
   5.4070704  -0.21514503  -0.24351055 -0.049092112    1.0188634 
   3.9034448   0.10230876   0.13730217   0.24992029    1.0137824 
   11.005302 -0.089756243  -0.26836499   0.18778279    1.0183821 
    5.026338  -0.51954429  -0.57441704  -0.37943607    1.0212859 
   12.318296  -0.80998718  -0.60064714   -0.2947073    1.0137189 
   4.5888159  -0.67553244  -0.38631455  -0.37796296    1.0160014 
   10.855238   0.05381131  0.049746192   0.41362002    1.0157178 
   8.9971409 -0.00044594332 -0.051631447     0.273866    1.0191458 
   12.636289  -0.47775946  -0.52406395 -0.079702055    1.0093962 
   8.8214551   -0.8134428  -0.88896738  -0.55715659    1.0175672 
   13.942011  -0.60045357  -0.60623181  -0.13860897    1.0113127 
   9.7132038  -0.15698865  -0.22068267    0.1349378    1.0110585 
   5.3251913  0.042238052   0.16315113   0.28020097    1.0236835 
   7.0424428  -0.32020807  -0.27648449 -0.063598186    1.0170389 
    2.965629  -0.54342746  -0.65248494   -0.4991019    1.0135037 
   14.392595  -0.72428334  -0.86865742  -0.31671722    1.0138972 
   4.2633952 -0.046627919  -0.24837647 -0.0053890185    1.0208317 
   12.577199   0.09529476  0.094760573   0.51426763    1.0170903 
   12.378562  -0.29620395  -0.34685733  0.091088108    1.0186584 
   8.1728844    -0.652564  -0.54483925  -0.32627215    1.0168343 
   12.261452   -0.8017071  -0.78177603   -0.3830265    1.0207742 
   4.4224865  -0.33243627  -0.19229433  -0.11494908     1.020794 
   8.7790998  0.059084035 -0.070327153    0.2870151    1.0155941 
   10.479347 -0.030459159 -0.015026404    0.3265688    1.0171552 
     4.55935  -0.46912609   -0.4184631  -0.29181627    1.0171628 
   10.585626  -0.77895249  -0.86010582  -0.46667496    1.0145624 
   11.472004  -0.48057648  -0.54876335  -0.13226978     1.020069 
   4.3886306  -0.06475298  0.079578288   0.15370034    1.0167105 
   9.5716603  0.003165534     0.050595   0.34593561    1.0192002 
   4.6966711  -0.52908731   -0.3663873   -0.2911816    1.0190733 
   10.022091  -0.71724268  -0.71643998  -0.38277164    1.0164299 
   4.7338699  -0.47441424  -0.74887198  -0.45384744    1.0114385 
   5.4090519  -0.14212659  -0.15135145  0.033562706    1.0189907 
   13.808363 -0.027941874  -0.04621082   0.42320242    1.0169261 
   7.3214185   -0.3568444  -0.35822624  -0.11348803    1.0163131 
   9.9776008  -0.71120562  -0.57834829  -0.31219026    1.0117443 
   7.7236286   -0.6695278  -0.70815888  -0.43138905     1.016589 
   8.3016733  -0.12614006  -0.29237857  0.067463134    1.0152561 
    11.77807  -0.15213952 -0.079436642   0.27681425    1.0183921 
   7.1398803  -0.23711433  -0.20161591  0.018630886     1.020019 
   5.9089196  -0.44378532  -0.57571183  -0.31278459    1.0115025 
   10.898534  -0.73192847  -0.73253704  -0.36894828    1.0218683 
   14.357649   -0.5014123  -0.66593397  -0.10508484    1.0172995 
   6.3619155 -0.0051662966 -0.050451446   0.18425498    1.0198288 
   7.6659212  -0.18450323 -0.078554647   0.12400177    1.0199246 
   9.9619254  -0.27386609  -0.44071898 -0.025228355    1.0172301 
   8.4737378  -0.58466372  -0.56957471  -0.29466129    1.0180439 
   12.471806  -0.53905733  -0.40871721 -0.058160396    1.0161561 
   14.146848  -0.06518716  -0.19763651   0.34014977    1.0204183 
   10.677221  -0.18560209  -0.19328886   0.16646189    1.0158251 
   9.1171037  -0.30003379  -0.29927548  0.004248821    1.0172031 
   8.8096134  -0.59460272  -0.70837958  -0.35783737    1.0232394 
   6.6471564  -0.47227961  -0.43422408  -0.23167997     1.014877 
   8.2392669  -0.10226034   -0.3073226   0.06985076    1.0206228 
   9.4358694   -0.2034917  -0.20700204   0.10928211    1.0159996 
   8.1750535  -0.26082651  -0.45047839 -0.083150668    1.0192476 
   6.8541658  -0.49757323  -0.26578841  -0.15320863      1.01461 
   7.9910427  -0.47283613   -0.5547321  -0.24741603    1.0133466 
   10.199088   -0.3228388  -0.40759254 -0.025246078    1.0128474 
    8.747904  -0.18012939  -0.23476818  0.084148017    1.0173679 
   2.9479337 -0.083093515  -0.19043989 -0.038502249    1.0177925 
   12.603875  -0.47626616  -0.46349012 -0.049748981    1.0116154 
   10.857078  -0.53028733  -0.56102272  -0.18375242    1.0127574 
   7.9546959  -0.30447314  -0.22907337 -0.0016167275    1.0208615 
   9.8663783  -0.31951134  -0.33953764 -0.00064521338     1.014832 
    8.268523  -0.30470627  -0.32287698 -0.038174195    1.0238142 
   11.487567  -0.38466304  -0.43904129  -0.02893328    1.0233239 
   1.9015569  -0.38504549  -0.38472318  -0.32149911    1.0078142 
   5.5272085  -0.32233396  -0.26991574  -0.11188457    1.0191988 
   8.7457164  -0.10572853  -0.22696733   0.12517595    1.0132135 
   12.354585  -0.37240193  -0.31275582  0.069240618    1.0162704 
   8.7111136  -0.47775864  -0.49302337  -0.19502055    1.0151729 
   11.751078  -0.63053471  -0.60667159  -0.22690053    1.0154251 
   6.2418037  -0.52794574  -0.38486962  -0.24834755     1.013815 
   8.1888205 -0.075215856  -0.21241261   0.12914645    1.0186154 
   3.6584203  -0.16045766  -0.15684883 -0.036705905    1.0211691 
   6.7437173  -0.33562936  -0.40562253  -0.14583537     1.015087 
   4.4906946  -0.41895327  -0.48002673  -0.29980018    1.0160509 
   12.950427  -0.33816199    -0.550195 -0.012497599    1.0170954 
   12.568038    -0.148024  -0.37196663   0.15893927    1.0157894 
   11.882661  -0.17625934 -0.081945857    0.2669861    1.0175041 
   9.1218823  -0.29605238  -0.39179539 -0.039861144    1.0189789 
   7.0270483   -0.6311811  -0.54145996  -0.35208559    1.0148048 
   7.9274336  -0.46361298  -0.36314935  -0.14913338    1.0195485 
   4.1199805   -0.1242205   -0.1352271 0.0076088858    1.0123881 
   5.9006724  -0.24483312  -0.14077433 0.0038853536    1.0229862 
   7.7879772   -0.2054281  -0.28319281  0.015288783    1.0191377 
   9.0893918  -0.45328178  -0.34620537  -0.09676385    1.0163639 
   15.797343  -0.38056232  -0.40933774   0.13162806    1.0156395 
   7.5699277  -0.24277722  -0.41058342 -0.074349397    1.0179987 
   7.1138317  -0.38088455  -0.32553824  -0.11608367    1.0143437 
   8.5202403  -0.41595589  -0.46350366  -0.15572176    1.0174088 
   7.1268359  -0.30577828  -0.11368101  0.027831556    1.0187653 
   14.170343  -0.38407446  -0.36227741  0.099168848    1.0137206 
   11.364188  -0.45660895  -0.46520806  -0.08210223    1.0108037 
   7.0580095  -0.39260343   -0.2933016  -0.10768553     1.015749 
   5.3834379  -0.43016749  -0.40339791  -0.23733477    1.0145571 
   11.536528  -0.32547233  -0.48769539  -0.02203294    1.0156814 
   4.9315549   -0.2516706  -0.25315668 -0.088028478    1.0120117 
   9.8798438  -0.29771093   -0.2155015  0.072721906     1.017803 
   8.3577882  -0.39273629  -0.36102336 -0.098286889    1.0139667 
   8.5755849   -0.4762972  -0.34349049  -0.12404102    1.0183408 
   9.1160105  -0.44716101  -0.48925039  -0.16433868    1.0107511 
   8.1678618  -0.31940085  -0.32408753  -0.04948213    1.0135685 
   9.0112331  -0.27161104 -0.090875714   0.11913106    1.0161801 
   9.5745984  -0.27546484  -0.57505945  -0.10610887    1.0092073 
   15.268446    -0.455988  -0.36137446   0.10026696     1.008622 
   10.755637   -0.4224428   -0.3120145 -0.0087074213    1.0127557 
   10.279084  -0.52451562  -0.48361368  -0.16142852    1.0171167 
   11.222827    -0.257915  -0.23766025   0.12630661    1.0145575 
   3.8710609   -0.2875092  -0.27135423  -0.15039635     1.011964 
   9.1590858  -0.52797974  -0.29203418   -0.1047041    1.0118084 
   8.0892489  -0.30359866  -0.26854178 -0.016428591    1.0110145 
   11.175202  -0.45854892  -0.33447667 -0.024006052    1.0183616 
   10.032557  -0.27266629  -0.21609976  0.090035533    1.0154241 
   12.650159  -0.23899838  -0.48604605  0.059149751    1.0131368 
   9.8754882   -0.4928946  -0.30867486 -0.071601789    1.0197645 
   6.4783132   -0.5739727  -0.46985762  -0.30597138    1.0138726 
   14.705245  -0.51785631   -0.4411678   0.01066277    1.0133695 
   9.5139579  -0.22376565  -0.30866413  0.050917041    1.0157853 
   8.2248943  -0.35680076  -0.44186561  -0.12517004    1.0197897 
   12.544927  -0.29660697  -0.25553435   0.14209358    1.0229879 
   12.969952  -0.56290169  -0.60789765  -0.15306793    1.0180826 
   13.706171  -0.42165136  -0.28959464   0.10124938    1.0139762 
   8.5421243  -0.24682411  -0.39731982 -0.037334487    1.0194078 
   7.4443627  -0.37520438  -0.39794005  -0.13842679    1.0164193 
   11.592163  -0.53887068  -0.45856196  -0.11231087    1.0191578 
   15.088169  -0.34932012  -0.29496557   0.18079611     1.019744 
    5.743473  -0.36743178  -0.41497368  -0.19975363    1.0206408 
   6.3194855  -0.35681561  -0.37106643   -0.1532915    1.0102755 
   10.523918  -0.42437804  -0.26998831 0.0036140821    1.0187884 
   8.2102224  -0.32014086  -0.29818815 -0.035490422    1.0180639 
   9.4033386  -0.51743802   -0.5426546  -0.21660169    1.0199314 
   10.734729  -0.35732097  -0.42158916 -0.031630752    1.0207045 
   7.8894688  -0.31730002  -0.29000994 -0.040672688    1.0173884 
   10.535667  -0.45341219  -0.43638604 -0.093710218     1.011614 
   10.132958  -0.34009783  -0.28356716  0.025932786    1.0173041 
    8.765182  -0.30859374   -0.4434828 -0.083865535    1.0159215 
   7.2245899   -0.4296188   -0.6340507  -0.29101509     1.012971 
   10.665192  -0.31367694  -0.17563013   0.11085287     1.013227 
   11.486901  -0.18541014  -0.38886704  0.095758114     1.013763 
   11.938959  -0.30121085  -0.33810911  0.078305306    1.0218146 
   4.1035938  -0.31399253  -0.19503426  -0.11772694    1.0205871 
   8.2814641  -0.41206592   -0.4214187   -0.1406935    1.0199268 
   9.3635518  -0.11598359  -0.24059718   0.13382801    1.0120839 
   4.0106305  -0.28159906    -0.421822  -0.21802285    1.0188093 
   9.7271124  -0.31095731  -0.41162834 -0.037055747    1.0137334 
   12.203012  -0.35562582  -0.39212143  0.032893428    1.0152197 
   6.8259372  -0.46890089  -0.45702948  -0.23543395    1.0130326 
   13.527913  -0.33786638  -0.34577385    0.1091103    1.0200875 
   7.8887563  -0.61335309  -0.28903512  -0.18823556    1.0156473 
    8.950874  -0.18932299  -0.30671465  0.050343648    1.0142099 
   8.7331972  -0.29954213  -0.42682933 -0.072079158    1.0104042 
   8.1563018  -0.22381867  -0.48311729 -0.081591252    1.0143764 
   4.2064037  -0.33319072  -0.29037531  -0.17156956    1.0162071 
   13.639107  -0.36545221  -0.20119879    0.1713114    1.0083885 
   15.220401  -0.51298705  -0.40443772  0.048634303    1.0185479 
   8.2291433  -0.53584245  -0.35989543  -0.17356416    1.0093915 
   11.175803  -0.45025785  -0.36452612 -0.034865215    1.0155094 
   7.8451961    -0.368334  -0.35981294  -0.10256693    1.0144316 
   9.0470806  -0.23940693  -0.30716095  0.028285414    1.0166554 
   6.4522261   -0.3303042  -0.36625611  -0.13320595    1.0159426 
     8.82998   -0.4434854  -0.52509711  -0.18995859    1.0174552 
   6.8694525  -0.57258282  -0.51987872  -0.31724902    1.0186646 
   8.1598802   -0.2965752  -0.26565297 -0.0091180764    1.0134562 
    15.97545  -0.19277248  -0.16527172   0.35349289    1.0158753 
   12.576454  -0.46789204  -0.35406748 0.0082353713    1.0176727 
   6.9395355  -0.41366968  -0.46191411  -0.20647405    1.0082534 
   7.9568706  -0.64577232  -0.44957816  -0.28244622    1.0164392 
    6.700164  -0.39050189  -0.42069248  -0.18225838    1.0167203 
    14.52296  -0.29487612  -0.36643619   0.15344251    1.0168697 
   5.7707398  -0.18593261  -0.43970872  -0.12046267    1.0180107 
   5.4029031  -0.31231208  -0.34491667   -0.1485176    1.0097685 
   7.6355606  -0.44823155  -0.45167045  -0.19543231    1.0107264 
   8.1478486  -0.35638785  -0.26827175 -0.040734847     1.013781 
   8.1767382  -0.23383567  -0.17208583  0.069597191    1.0202509 
    9.023451  -0.39919344  -0.33185606 -0.064743054    1.0174219 
    9.914397   -0.3786095  -0.54063034  -0.12914002    1.0142598 
   6.0525981  -0.55480142  -0.31142306  -0.23135897    1.0131052 
   2.9449152 -0.049241744 -0.044748661  0.051168638    1.0165429 
   10.829041  -0.24903921  -0.25412318   0.10938684    1.0112351 
   9.2911045  -0.23117044  -0.30177547  0.043230532    1.0087678 
   7.2001282  -0.35590751  -0.55054414  -0.21322155    1.0206744 
   6.1111681  -0.52365228  -0.21986662  -0.16805385    1.0151908 
    4.508913  -0.11378992  -0.25986952 -0.036532615    1.0178631 
   11.217202  -0.12134613 -0.075260629   0.27560337    1.0160705 
   8.7787941  -0.20688128  -0.41276585 -0.017197094    1.0167756 
   13.825067  -0.74124934  -0.58052474  -0.20005146    1.0181265 
  0.30896499  -0.21532741  -0.33210463  -0.26341719    1.0122659 
    9.080646  -0.35281561  -0.22862786  0.011966461    1.0105223 
    11.90132  -0.22023698 -0.089694528   0.24174491    1.0148871 
   12.973312  -0.19803798  -0.21238416   0.22723266    1.0138723 
   9.5753439  -0.42048884  -0.52594875  -0.15404067     1.013947 
   8.2927723  -0.49843589  -0.59794143  -0.27176291    1.0145614 
   8.9772929  -0.35434919  -0.46125166  -0.10855733    1.0145623 
   7.8925543  -0.11978209  -0.29079709  0.057795555    1.0154834 
   8.6708577  -0.24939333  -0.28583116   0.02141635    1.0156314 
   10.499383  -0.42022069  -0.39251919 -0.056390509    1.0112604 
   5.5803329  -0.49775231  -0.45726322  -0.29149667    1.0164405 
    5.843321  -0.30424993   -0.2114402 -0.063067697    1.0176697 
   10.476723  -0.18745866  -0.28824551   0.11137201     1.023613 
    3.590133  -0.13888018  -0.16606302   -0.0328005    1.0190697 
   11.696111  -0.46139634  -0.59364554  -0.13765057     1.013756 
   10.896898  -0.37619471   -0.4604572 -0.055096022    1.0204116 
   11.492482  -0.49900633  -0.54456536  -0.13870312    1.0176637 
   12.977317  -0.31480156  -0.12614845   0.21210222    1.0148589 
   10.961238  -0.22215526   -0.1648439   0.17187503    1.0193234 
   10.575747  -0.51352539  -0.34052264 -0.074499111    1.0196782 
   9.4095513  -0.48687028  -0.45193025  -0.15574855    1.0129382 
   9.2051811  -0.28594475  -0.35408986 -0.013177933    1.0181393 
   9.7734899  -0.37403255  -0.32334339 -0.022904971    1.0164981 
    12.05949  -0.26200969    -0.139195   0.20138064    1.0182194 
   10.041853   -0.3918304  -0.35968952 -0.041031531     1.013675 
   9.3122343  -0.36799223  -0.52585842  -0.13651751    1.0188741 
    9.597363  -0.41912425   -0.4485929  -0.11394647     1.010292 
   3.7385984  -0.41400511  -0.47815423  -0.32145972    1.0155904 
   8.9494497  -0.31468497  -0.32070023 -0.019377608     1.015409 
   7.9546468  -0.40606327  -0.42434718  -0.15005033    1.0131441 
   13.869651  -0.51456008   -0.2797128  0.065185265    1.0125268 
   8.4800258  -0.41151616  -0.25584114 -0.051011127    1.0203012 
    5.714398  -0.34257378  -0.24820185  -0.10490788     1.012595 
   13.644194  -0.53990834  -0.48416114 -0.057228264    1.0163641 
   10.377829  -0.33892212  -0.38079016  -0.01392852    1.0189603 
   9.7134486   -0.1618755  -0.52532059 -0.019816421    1.0152865 
   7.3030566  -0.28622655  -0.31044612 -0.054901113    1.0154313 
   6.4081586  -0.42714782  -0.43119414   -0.2155657    1.0120544 
    11.13293    -0.284923  -0.40013801  0.028567171    1.0174529 
   7.8901572  -0.56454054  -0.51093683  -0.27473344    1.0101103 
   5.6526873  -0.33600835  -0.24441075  -0.10178664    1.0135838 
    4.778537  -0.39731326  -0.25727745  -0.16801079    1.0121171 
   12.161329  -0.44476606  -0.60146522  -0.11773801    1.0180544 
   12.504795  -0.41267823  -0.47891054 -0.028967896    1.0167874 
   8.2614009  -0.30668353  -0.34617477 -0.051049123    1.0190182 
   12.483414  -0.40623914  -0.40238957  0.011799441    1.0210746 
    14.33951  -0.36064747  -0.51299788  0.041160981    1.0114635 
   5.5997461  -0.35453744  -0.29167998   -0.1364505    1.0188326 
    4.473427  -0.29636849  -0.27816105  -0.13815054    1.0187922 
   9.0946594  -0.61392754  -0.41739509    -0.212506    1.0114185 
    6.638803  -0.37943363  -0.37262667  -0.15473672    1.0145662 
   9.6759664  -0.17244711  -0.34537869  0.063619312    1.0177911 
   7.4320442  -0.37688506   -0.1990734 -0.040244425    1.0188775 
   10.462269  -0.42955003  -0.53568935   -0.1338774    1.0098709 
   6.7035012   -0.4942319  -0.45574706  -0.25153944     1.011227 
   9.5734872  -0.46831563  -0.46130703  -0.14569509     1.020956 
   5.6558612 -0.041795065  -0.15493781  0.090162268    1.0233109 
   12.675216  -0.28426136  -0.50008453  0.030334266    1.0160696 
   10.142154   -0.4780204  -0.62584854  -0.21386266    1.0186819 
   7.8779813   -0.3344738  -0.36029173 -0.084783389    1.0154454 
   11.876678  -0.24087842  -0.36132019  0.094789973    1.0206586 
   14.536561  -0.19907118  -0.22277616   0.27362837     1.013691 
   7.6153385  -0.26083751  -0.33234256 -0.042745419    1.0140708 
   10.874293  -0.45308815   -0.5444073  -0.13627129    1.0173973 
   6.4524332  -0.50513762  -0.38711083  -0.23104311    1.0069098 
     9.56749  -0.25141315  -0.20610165  0.090158932    1.0213767 
   7.2372526  -0.33063567  -0.33325544 -0.090703802    1.0121906 
   13.355542  -0.40763762  -0.39366112  0.044535367    1.0135418 
   11.363066  -0.48310825   -0.4414895  -0.08353002    1.0137775 
   10.996726  -0.24921692  -0.34503767  0.069430247    1.0089942 
  0.54781095  -0.22468297  -0.17864577  -0.18340401    1.0145462 
   9.7622625  -0.25682002  -0.29331836  0.050339558    1.0203079 
   6.2395721  -0.44706721  -0.39684974  -0.21397274    1.0057788 
   9.9087403  -0.56045906  -0.41022891  -0.15505264     1.011527 
   7.4995273  -0.25228455   -0.2539609 -0.0031384843    1.0164347 
   14.204883  -0.34153605  -0.43557034  0.084942908    1.0219502 
    10.29487  -0.50763704  -0.33735416 -0.079333253    1.0148648 
    4.881962  -0.43071448  -0.49792963  -0.30158999    1.0097032 
   15.926508  -0.61241713  -0.49467572 -0.022662808    1.0172485 
   10.431764  -0.50950228  -0.45677867  -0.13541502    1.0176678 
   8.6948212  -0.25299568  -0.30011425   0.01327241    1.0161261 
   9.1744867  -0.31110694  -0.31567534 -0.0075749182    1.0199627 
   12.708356  -0.33021921   -0.4778397  0.019582418    1.0160642 
   12.554093  -0.47850325  -0.60406511  -0.12281443    1.0168346 
   16.217987  -0.46432688  -0.59367423  0.011599013    1.0234819 
   13.298943  -0.44234225  -0.32194299  0.061155475    1.0141035 
   13.098514  -0.26160192  -0.23337088   0.18913073    1.0188889 
   11.075131  -0.22245111  -0.38345836  0.066216286    1.0138194 
   9.7619667  -0.49342414  -0.42977133  -0.13619885     1.012904 
   10.944748  -0.52724128  -0.47183998   -0.1347157    1.0174974 
   4.7192077  -0.26378642  -0.21466536 -0.081918966    1.0199911 
   10.944963  -0.21084575   -0.1940596   0.16237942    1.0179145 
   8.9607547  -0.32217656  -0.37622188 -0.050507399    1.0195504 
   10.823196  -0.45682409  -0.33972825 -0.037502977     1.020795 
   8.8088529  -0.43516145  -0.29889545 -0.073400025     1.019725 
   8.3320004  -0.36531684  -0.26700438 -0.038427264    1.0119399 
    10.04685  -0.47807221  -0.23629267 -0.022287437    1.0116828 
   9.1426286  -0.28195109  -0.39471564 -0.033579076    1.0192591 
   15.493069  -0.30824529  -0.35171401   0.18645597    1.0131787 
   10.302585  -0.25539713  -0.40638877  0.012526544     1.013758 
   14.387036  -0.29638574   -0.4313436    0.1157032    1.0120053 
   9.4286935   -0.4323786  -0.38787524 -0.095837137    1.0150977 
   12.978504  -0.33361434  -0.36241008  0.084604591    1.0169262 
   10.332397  -0.34406436  -0.51191409 -0.083575988    1.0040265 
   9.4517677 -0.063426244  -0.28334661    0.1416725    1.0134447 
   11.336169  -0.55810007  -0.48581253    -0.144084    1.0156298 
   11.420722   -0.3625235  -0.46089256 -0.031017292    1.0147533 
   9.1728903  -0.33729998  -0.36139549 -0.043584727    1.0191689 
   9.2706495  -0.37225091  -0.33407382 -0.044140713    1.0196733 
   14.443449  -0.21955645  -0.41267254   0.16533381     1.013709 
   11.611098   -0.5123088  -0.27102746 -0.0046315265     1.011241 
   6.6842391  -0.32044258  -0.20265356   -0.0387401    1.0143323 
   10.319221  -0.38950902  -0.40157898 -0.051569972    1.0168381 
    6.120025  -0.28846547  -0.29036086 -0.085412337    1.0084925 
   3.8130179  -0.48109251   -0.3024543  -0.26467281    1.0138606 
   6.5390941   -0.5126362  -0.37315929  -0.22492794    1.0214129 
   6.1163686  -0.30840533  -0.20165739 -0.051152406    1.0176597 
   8.5398497  -0.26544512  -0.21422275  0.044827724    1.0177173 
   14.064083  -0.24396701  -0.45289177   0.12037337    1.0097836 
   14.341878  -0.55574922  -0.46530074 -0.032462384    1.0127662 
   4.8916902  -0.35742929  -0.35301186  -0.19216423    1.0142201 
   8.4238032  -0.21776276  -0.14435464  0.099734739    1.0195499 
   3.9920059  -0.32795558  -0.26207332  -0.16194759    1.0101765 
   8.8652352  -0.56118715  -0.34648733   -0.1583294     1.015523 
   1.9235169  -0.27864924  -0.38758288  -0.26899883    1.0120545 
   9.5575792  -0.19812348  -0.16427163   0.13738842    1.0169853 
   10.137197   -0.2321756  -0.38691445  0.028361537    1.0165923 
   6.7436764  -0.31196373  -0.27737198 -0.069878644    1.0172663 
   11.452365  -0.43546416  -0.56084775  -0.11641047     1.010942 
    7.975663  -0.33682879  -0.59439185  -0.19975488    1.0098383 
   7.7236085   -0.3309362  -0.37689769 -0.096463332    1.0202465 
   11.710654  -0.29545109  -0.33173147   0.07676387    1.0140219 
   6.4633702  -0.61695698  -0.57648152  -0.38127358    1.0125497 
   10.690497  -0.49356653  -0.57738965  -0.17912818    1.0157323 
   11.124167  -0.29150612  -0.35605717  0.047023938    1.0162462 
   6.2763769  -0.23897367  -0.29229733 -0.056422937    1.0139252 
   10.497935   -0.4020462  -0.37790235 -0.040043108    1.0153654 
   11.730885  -0.29205967  -0.29624732  0.096876006    1.0158045 
    7.119201  -0.39455412  -0.30185577  -0.11089825    1.0142873 
   5.6931432  -0.26807536  -0.40028073  -0.14440661    1.0142342 
   10.432032  -0.52812889  -0.61485113  -0.22375562    1.0148975 
   11.932214  -0.52589048  -0.32483198 -0.027620761     1.020657 
   12.164205  -0.46279286  -0.28602364  0.031065248    1.0168167 
   13.460834  -0.54220816  -0.51608771 -0.080453486    1.0180737 
   11.639445  -0.49380802  -0.43663293 -0.077238957    1.0163209 
   3.8841982  -0.24165639  -0.19398863 -0.088349238    1.0182862 
   5.1427155  -0.25323329   -0.2467383  -0.07856195    1.0123976 
   9.6700453  -0.40410864  -0.35634638 -0.057892665    1.0137554 
   9.1080172     -0.62194  -0.50630174   -0.2605203    1.0121678 
   3.6372038  -0.24652821   -0.1347494 -0.069398677     1.008921 
   7.9241235   -0.4315648  -0.34903825  -0.12616408    1.0166615 
   7.6736593  -0.29143459  -0.24229172 -0.011074512    1.0106167 
   14.102811  -0.63156412  -0.45568188 -0.073529294    1.0108551 
   6.7475808  -0.42592787    -0.321597  -0.14884307    1.0143117 
   8.7185797  -0.48833949  -0.51611733  -0.21160909    1.0118347 
   10.678186  -0.36432074  -0.45287584 -0.052658773    1.0088207 
   6.1310158   -0.3209213  -0.18615199 -0.049169448    1.0095814 
   6.1069383  -0.27470224  -0.22778816 -0.047680588    1.0116472 
   10.186008  -0.31209071  -0.56490003 -0.098961776    1.0220516 
   6.4529634  -0.46035814   -0.4680008  -0.24908069    1.0172562 
   14.615597  -0.45266956  -0.59260549 -0.035450957     1.014406 
   9.8550895 -0.068538536  -0.17797115   0.20524814    1.0137784 
   10.301111   -0.1250973  -0.20950722   0.17606811    1.0136404 
    7.695561  -0.63709135  -0.50342652  -0.31374023    1.0173917 
   5.2399297   -0.3829997  -0.50097236  -0.26732171    1.0171313 
   6.6208862  -0.31940034  -0.36899818  -0.12350305    1.0166074 
   13.309164  -0.27892462  -0.29080692   0.15877303     1.013554 
   11.094345   -0.1524023  -0.18012595   0.20354737    1.0164554 
   7.7178317   -0.5292567  -0.41528847  -0.21501153    1.0172042 
   8.2470607  -0.74936764  -0.51955504  -0.35955932    1.0251085 
   7.7472895  -0.46966911  -0.51210734  -0.23264524     1.019992 
   9.0916292 -0.082926649  -0.21902985   0.15207605    1.0137077 
    11.30975  -0.28986909  -0.19954302   0.13228562    1.0205804 
   13.839069  -0.39604629  -0.37015815  0.078200075       1.0115 
   3.4281349  -0.66321196  -0.66769332  -0.55118148    1.0142208 
   7.5509871  -0.62675323  -0.62004216  -0.37169812     1.018816 
   12.772447  -0.46279828  -0.27946464  0.054616778    1.0168392 
   9.0789643  -0.23911983  -0.30885754  0.028643462    1.0134272 
   10.982102  -0.29843059  -0.29387133  0.069919108    1.0162169 
   6.8770693  -0.55876076   -0.5585441  -0.32941679     1.019934 
   8.0387806  -0.45232057  -0.54994269  -0.23317228    1.0174268 
   10.847643  -0.48144102  -0.53071522  -0.14449002    1.0159774 
   11.666923 -0.098169506  -0.21933327   0.23014604     1.019783 
   9.6680764  -0.25629204  -0.22205967   0.08309336    1.0190103 
   10.105744  -0.47990309  -0.39593651  -0.10106166    1.0176765 
   6.2408839  -0.49124108  -0.61584277  -0.34551246    1.0155447 
    2.192442  -0.49854896  -0.32788191  -0.34013403    1.0169451 
   11.852644  -0.26189028  -0.21967868   0.15430364    1.0116593 
   11.230285  -0.26112032 -0.076075129   0.20574512    1.0086651 
   11.907848  -0.41080214  -0.35732409  0.012865138    1.0147053 
   5.3668236  -0.35413914  -0.32599924  -0.16117507    1.0178302 
   11.008345  -0.55098147  -0.47602655  -0.14655919    1.0145457 
   10.375761  -0.57306436  -0.45368512  -0.16751604    1.0122395 
   12.447381  -0.39843452  -0.33101854  0.050186157    1.0189765 
    8.803691  -0.11177294  -0.14978555   0.16267712    1.0131737 
   8.0063142  -0.31185932  -0.30048554 -0.039295291    1.0098682 
   9.3770806  -0.57034113  -0.43961809  -0.19241026    1.0144397 
   9.1290717  -0.59290376  -0.55683727  -0.27056812    1.0076586 
   11.813119   -0.4330347  -0.58138721  -0.11344032     1.014096 
   9.7007373  -0.26252313  -0.28346772  0.050362484    1.0237313 
   6.7955098  -0.32688348  -0.41321613  -0.14353281    1.0124943 
   10.410625  -0.37596787  -0.63531179  -0.15861898    1.0151968 
   14.495823  -0.71933724  -0.84759872  -0.30027388    1.0109153 
   14.146593  -0.50125285   -0.3904492  0.025702064    1.0161661 
   9.5486359  -0.26177721  -0.22540526  0.074696631    1.0138925 
    11.50801  -0.24836556  -0.42644361  0.046195763    1.0135809 
    7.700942  -0.47493468  -0.38634102  -0.17393978    1.0151327 
   9.8716589  -0.45704438  -0.42574376  -0.11233878    1.0211738 
   13.796332  -0.61061249  -0.41186234 -0.051359673    1.0110084 
   6.6392513  -0.17455639  -0.30497773 -0.018458687    1.0159833 
   10.910106   -0.3112654  -0.45658531 -0.020255145     1.018677 
   10.406801  -0.49272259  -0.41299074  -0.10596329    1.0169447 
   9.7582377  -0.40418551  -0.35324223  -0.05343928    1.0098552 
   9.5069842  -0.22002826  -0.34817843  0.032796129    1.0133691 
   12.366297  -0.33715699  -0.33365555  0.076803641    1.0179747 
   12.052612  -0.39282971  -0.24758983  0.081543956    1.0160653 
   4.1239442   -0.4599049    -0.419155  -0.30206514     1.018363 
   13.926584  -0.59033493  -0.50283449 -0.082365248    1.0173252 
   8.3953065  -0.20878065  -0.25797595  0.046465252    1.0075591 
   13.431491  -0.25405103  -0.33808855   0.15164656    1.0141739 
   3.6567407  -0.17034578  -0.24850757  -0.08753532    1.0151747 
   8.6445779  -0.47178073  -0.35190831  -0.12369192    1.0127766 
   12.453105  -0.26744724  -0.50644443  0.028157659    1.0145703 
   8.2205189  -0.29880144  -0.39197292 -0.071369885    1.0197391 
   8.8906568  -0.42088076  -0.33620102 -0.082185666    1.0127885 
   9.9473697  -0.35319224  -0.37798708  -0.03401067    1.0217889 
   12.141478  -0.39826902  -0.45683312 -0.022835138    1.0153068 
   5.5074529   -0.4733514  -0.24740761  -0.17679774    1.0122521 
   4.7263661  -0.30693697   -0.2259553   -0.1089006    1.0090166 
   10.093772   -0.2293616  -0.29732745  0.073114556    1.0122385 
   6.3772181  -0.30220451   -0.2350816 -0.056069122    1.0137031 
   13.223251  -0.51880246  -0.24445866  0.059144475    1.0122215 
   8.1867243  -0.36434378  -0.59249431  -0.20552823    1.0147536 
   5.9579487  -0.30840744  -0.26171411 -0.086462483     1.017608 
   11.268537  -0.25351714  -0.29304051   0.10233906    1.0182422 
   15.325422   -0.2590543   -0.2786395   0.24200049    1.0183609 
   11.480685  -0.51192877  -0.43715277 -0.091851267    1.0216052 
   10.910629   -0.3517085  -0.52321982 -0.073776534     1.019995 
   6.3865711   -0.2966521    -0.282279 -0.076579846    1.0082192 
   11.332144  -0.42862621  -0.25433665    0.0362567    1.0114906 
   6.9976693  -0.35223156   -0.3983312  -0.14202574     1.016415 
    11.53871  -0.62127753  -0.57650478  -0.21426748    1.0128407 
   3.6459682  -0.27317674  -0.43227655  -0.23119437    1.0148133 
   7.1261683  -0.22959532   -0.3335954 -0.044056418     1.015389 
   8.1961779  -0.21041201  -0.22574762  0.055126119    1.0133179 
   10.056799  -0.25538931   -0.2227542  0.096154885    1.0198655 
   12.715631  -0.56512178  -0.48353662  -0.10047484    1.0121467 
   8.1028994  -0.48631753   -0.4800287  -0.21307647    1.0126044 
   10.950264  -0.43318196   -0.3805361 -0.041850218    1.0135593 
   6.5402322  -0.18790051  -0.24895546 -0.00042024566    1.0147456 
   9.9185933  -0.22337659  -0.31383236  0.062015299    1.0205608 
   6.2605306  -0.51825177  -0.27737643  -0.18912975    1.0149972 
     10.9023  -0.62507898  -0.49165467  -0.19495682     1.013619 
   8.0766064   -0.3947089  -0.56483217  -0.21055032    1.0110524 
   11.377053  -0.22591422   -0.2119739   0.16029103     1.017815 
   6.4643327 -0.078039245  -0.32475402  0.014081127    1.0182973 
    8.663057  -0.31986325   -0.3723668 -0.057346461    1.0252903 
   9.3990915  -0.56043828  -0.50879101   -0.2213116    1.0159056 
   11.362706   -0.4774114  -0.42234291 -0.071120281    1.0162812 
   7.1672446  -0.29224726  -0.27214422 -0.043287585    1.0136937 
   7.1406539  -0.27031032  -0.30131823 -0.047792479    1.0233587 
   11.525412  -0.55359805  -0.37323528 -0.079236248     1.020126 
   9.4493264  -0.47397227  -0.33251515 -0.088266163    1.0198467 
   8.2509826  -0.31449972  -0.49473877  -0.12958649     1.012067 
   5.8667626  -0.21193251  -0.13953822  0.019823388    1.0190633 
   11.986772  -0.19384593  -0.33735245   0.13395989    1.0197363 
   11.943044  -0.28585403  -0.38691348  0.061717706    1.0149664 
    6.313235  -0.46187406  -0.25836045  -0.14967609    1.0171669 
   10.968625  -0.58311097  -0.35907096  -0.10547014    1.0121287 
   11.941991  -0.35308378  -0.42350896  0.009770005    1.0173245 
   11.530298  -0.37477612  -0.24046097  0.076724718    1.0124336 
   11.343625  -0.14895334  -0.34163884   0.13282473    1.0171393 
   10.058861  -0.25884063  -0.32914007  0.041305006    1.0155396 
   14.147293  -0.49194833  -0.48277502 -0.015785229    1.0197034 
   7.1878474  -0.27057221  -0.32093094 -0.056156661    1.0217974 
   6.8048129  -0.24640474  -0.27859967 -0.035675106    1.0160023 
   4.9063115  -0.22439676  -0.34639725  -0.12185329    1.0168335 
   11.012488  -0.44710026  -0.40843261  -0.06068351    1.0125382 
   11.576139  -0.39849301   -0.2936699  0.039789853    1.0237744 
   10.549338  -0.39770003  -0.52578844  -0.11009964    1.0160175 
Loop time of 1463.57 on 12 procs for 50000 steps with 51000 atoms

Performance: 29516.902 tau/day, 34.163 timesteps/s
100.0% CPU use with 12 MPI tasks x 1 OpenMP threads

MPI task timing breakdown:
Section |  min time  |  avg time  |  max time  |%varavg| %total
---------------------------------------------------------------
Pair    | 0.34321    | 565.76     | 1123.7     |1901.8 | 38.66
Neigh   | 0.08921    | 69.139     | 215.12     |1172.8 |  4.72
Comm    | 19.375     | 342.99     | 874.36     |2023.3 | 23.44
Output  | 0.8227     | 12.351     | 35.253     | 458.6 |  0.84
Modify  | 0.012514   | 4.7135     | 14.683     | 303.9 |  0.32
Other   |            | 468.6      |            |       | 32.02

Nlocal:        4250.00 ave       12846 max           0 min
Histogram: 8 0 0 0 0 0 0 0 0 4
Nghost:        3273.83 ave        7970 max           0 min
Histogram: 4 0 4 0 0 0 0 0 0 4
Neighs:       127842.0 ave      396772 max           0 min
Histogram: 8 0 0 0 0 0 0 0 0 4
FullNghs:     255684.0 ave      774288 max           0 min
Histogram: 8 0 0 0 0 0 0 0 0 4

Total # of neighbors = 3068204
Ave neighs/atom = 60.160863
Neighbor list builds = 5000
Dangerous builds = 5000

Please see the log.cite file for references relevant to this simulation

Total wall time: 0:24:23
