LAMMPS (29 Oct 2020)
OMP_NUM_THREADS environment is not set. Defaulting to 1 thread. (src/comm.cpp:94)
  using 1 OpenMP thread(s) per MPI task
units 		          lj
dimension	          3
boundary	          p p p
neighbor	          0.3 bin
neigh_modify        every 1 check yes

atom_style	        mdpd


# variable Lz equal 60
#
# region     mdpd     block -10 10 -10 10 0 ${Lz} units box
# create_box          1 mdpd
#
# region     slab     block -10 10  -10 10  20 40
# create_atoms        1 random 57900 2021 slab       # A =-50
# # create_atoms        1 random 51000 2021 slab      # A =-40


read_data  initial_npt_50.data
Reading data file ...
  orthogonal box = (-9.9258044 -9.9258044 0.0000000) to (9.9258044 9.9258044 60.000000)
  2 by 1 by 6 MPI processor grid
  reading atoms ...
  58000 atoms
  reading velocities ...
  58000 velocities
  read_data CPU = 0.108 seconds

pair_style          hybrid/overlay mdpd/rhosum mdpd 1.0 1.0 9872598
pair_coeff          1 1 mdpd/rhosum  0.75
pair_coeff          1 1 mdpd         -50 25 4.5 1.0 0.75
mass                1 1.0


compute             mythermo all temp
compute             myP all pressure mythermo


variable gamma equal "(60*0.5) * (pzz - (pxx + pyy)*0.5)"

thermo              100
thermo_modify       temp mythermo
thermo_modify       flush yes
thermo_style custom v_gamma pxx pyy pzz temp
WARNING: New thermo_style command, previous thermo_modify settings will be lost (src/output.cpp:693)

velocity            all create 1.0 2093 loop local dist gaussian
comm_modify         vel yes
fix         mvv     all mvv/dpd 0.65

# min_style cg
# minimize 0 0 1000 10000

# compute den all chunk/atom bin/3d z 20 20 x -10 20 y -10 20 discard yes
# # compute den all chunk/atom bin/cylinder z lower 4 0 0 0 6 4 discard yes
# fix den all ave/chunk 1 100 100 den density/number file den.txt

dump        mydump  all atom 1000 sim.lammpstrj

timestep            0.01
run                 50000
Neighbor list info ...
  update every 1 steps, delay 10 steps, check yes
  max neighbors/atom: 2000, page size: 100000
  master list distance cutoff = 1.3
  ghost atom cutoff = 1.3
  binsize = 0.65, bins = 31 31 93
  2 neighbor lists, perpetual/occasional/extra = 2 0 0
  (1) pair mdpd/rhosum, perpetual
      attributes: full, newton on
      pair build: full/bin/atomonly
      stencil: full/bin/3d
      bin: standard
  (2) pair mdpd, perpetual, half/full from (1)
      attributes: half, newton on
      pair build: halffull/newton
      stencil: none
      bin: none
Per MPI rank memory allocation (min/avg/max) = 5.412 | 8.861 | 15.33 Mbytes
v_gamma Pxx Pyy Pzz Temp 
   13.421105  -0.63257002  -0.76329652   -0.2505631            1 
   19.048248   -1.3484758   -1.2159004   -0.6472465    1.0174412 
   23.051632   0.60474763    0.5661596    1.3538413    1.0138341 
   12.869739   0.29855008   0.31568425   0.73610845    1.0047946 
   16.069731   -1.1728671   -1.2984155  -0.69998363    1.0158431 
   14.832717   -1.8183555   -1.8998981   -1.3647029    1.0127076 
    17.35627  -0.26663011  -0.29003943   0.30020755    1.0209932 
   15.029452   0.52894334   0.57958697    1.0552469    1.0077359 
   14.131891  -0.47603642  -0.34101872  0.062535467    1.0089189 
   21.103274   -1.5987171   -1.5648996  -0.87836587    1.0097755 
   16.099163   -1.2136929    -1.079959  -0.61018717    1.0154477 
   12.663637   0.11551478  0.026487667   0.49312245    1.0079462 
   11.260531   0.21517928   0.15996923   0.56292531    1.0163456 
   15.503322  -0.92270087  -0.87282423  -0.38098514    1.0126093 
   18.583942   -1.4868957   -1.5123255  -0.88014588    1.0084969 
   16.670837  -0.58844139  -0.68401902 -0.080535653    1.0157839 
   13.849048   0.41834354   0.50398268   0.92279805    1.0073628 
   11.409199  -0.39823061  -0.44477394 -0.041195654    1.0055838 
   14.524917   -1.3133286   -1.3535444  -0.84927256    1.0174758 
   12.516519   -1.1152976   -1.0618582  -0.67136063    1.0186945 
   18.393166  -0.25192162   -0.3437729   0.31525828    1.0061474 
   15.511402  0.088650672 -0.012128893   0.55530761    1.0121534 
   15.372924  -0.79737302  -0.76272544  -0.26761842    1.0130371 
   21.302056   -1.2128167   -1.2833335  -0.53800654    1.0132763 
   19.260153    -0.830844  -0.65404545  -0.10043962    1.0071728 
   19.238573   0.14866379  0.081179061    0.7562072    1.0196894 
   12.548023  -0.32066038  -0.28084278   0.11751587    1.0084216 
   12.585317  -0.94622032   -1.0519092  -0.57955419    1.0099702 
   16.208704    -1.092303  -0.98339272  -0.49755771     1.003224 
   16.829477    -0.362125  -0.43219596   0.16382209    1.0142967 
    17.69901  0.041751261  -0.19139929   0.51514298    1.0045395 
   10.730743   -0.4385529  -0.73250591  -0.22783798    1.0077709 
   11.672466   -1.1178996   -1.0881583  -0.71394678    1.0140478 
   13.655672  -0.67182124   -0.6269091  -0.19417611    1.0132009 
   16.785581  -0.19778674   -0.2645798   0.32833608    1.0147762 
   13.739236  -0.38295057  -0.20643294   0.16328277    1.0153177 
   9.5195074  -0.71479099  -0.76327612  -0.42171664    1.0068283 
   13.135075  -0.96082226  -0.83901475  -0.46208268    1.0158473 
   18.699527  -0.47685833  -0.50648431   0.13164623    1.0153347 
   15.113455  -0.13439443  -0.24028541    0.3164419    1.0122936 
   13.313006   -0.4465345  -0.64326971  -0.10113523    1.0146356 
    15.34785  -0.63192728  -0.91730434   -0.2630208    1.0132745 
   12.586475  -0.44884757  -0.72736286  -0.16855606    1.0140125 
   12.522072  -0.47021588  -0.52100228 -0.078206676    1.0099927 
    16.34856  -0.41161394  -0.44080929    0.1187404     1.012737 
   17.681036   -0.5915997  -0.68413607 -0.048500031    1.0080925 
   10.115079  -0.54835365  -0.57641098  -0.22521301    1.0097719 
   10.887022  -0.23405727  -0.35997462  0.065884795    1.0068724 
   13.076651  -0.39794346   -0.6299246 -0.078045654    1.0146641 
   15.929204  -0.63776181  -0.50477375 -0.040294319     1.014166 
   13.769019  -0.70572708  -0.65368577  -0.22073911    1.0179381 
   15.320715  -0.48745187  -0.77218774   -0.1191293    1.0146217 
   15.754266   -0.2430006  -0.36017701   0.22355339    1.0077216 
   18.751836    -0.433217  -0.55169055   0.13260744    1.0171967 
   13.126693  -0.67236683  -0.52877421  -0.16301409    1.0128774 
   15.013189  -0.70946569  -0.91007152  -0.30932897    1.0053631 
   11.130779  -0.50446717  -0.67214213  -0.21727868    1.0135599 
   7.1995145  -0.35980927  -0.26542756 -0.072634598     1.016882 
   13.015417  -0.55106057  -0.52768158  -0.10552383    1.0137829 
   14.250455  -0.53312112  -0.58923487 -0.086162824    1.0118376 
   11.583127  -0.72596799   -0.5093556  -0.23155757    1.0126181 
   19.456177  -0.48521986  -0.51079484   0.15053187    1.0074619 
   14.089313  -0.51740304  -0.58225021 -0.080182849    1.0128181 
   15.380095  -0.50509823  -0.60143346 -0.040596019    1.0152361 
   16.140668  -0.49870975   -0.3361656   0.12058458    1.0118169 
   14.331239  -0.39760974  -0.65647488  -0.04933435    1.0050525 
   14.166606  -0.43369188  -0.50009172  0.005328419    1.0140106 
   14.483134  -0.72369492  -0.54499906  -0.15157585    1.0187051 
   16.202077  -0.31866063  -0.43130429   0.16508676    1.0071969 
   18.506834  -0.57526183  -0.48979805  0.084364535    1.0164487 
   11.633992  -0.48331927  -0.41342438 -0.060572087    1.0135162 
   14.771189    -0.769055   -0.6102827  -0.19729587    1.0160556 
   14.348758  -0.69479728  -0.75414643  -0.24617992    1.0106219 
   13.501884  -0.41268239  -0.50212048 -0.0073386271     1.012935 
   16.189461  -0.39257605  -0.32115164   0.18278487    1.0132859 
   15.041836  -0.67366785  -0.59833641   -0.1346076    1.0114831 
   11.208256  -0.68576197  -0.52446111  -0.23150302    1.0093662 
   10.918264    -0.646725  -0.55102797  -0.23493435    1.0118801 
   9.6119089  -0.40771153  -0.52918476  -0.14805118    1.0102554 
   12.567118  -0.41796689  -0.45840805  -0.01928353     1.010372 
   10.660572  -0.79784074  -0.70556395  -0.39634995    1.0104506 
   15.148015  -0.55537848  -0.53949173 -0.042501271     1.011633 
   12.460676  -0.73935598  -0.40590411  -0.15727419    1.0161709 
   11.837272  -0.40770838  -0.41801033 -0.018283626    1.0131716 
   14.227515  -0.66288124  -0.57490345  -0.14464183     1.009017 
   14.726131  -0.59475638  -0.46262697 -0.037820638    1.0128867 
   13.152406  -0.53185633  -0.70963339  -0.18233133    1.0147599 
   13.944002  -0.59378593  -0.72994665  -0.19706622    1.0159397 
   12.242755  -0.52500344  -0.51851878  -0.11366929    1.0095055 
   16.378646  -0.54493093   -0.3989137  0.074032536    1.0116585 
   14.510932  -0.66802278   -0.7337848  -0.21720604     1.009943 
   12.862521  -0.45496112  -0.75703794  -0.17724882    1.0151459 
   11.796783  -0.61083855  -0.52531078  -0.17484856    1.0158785 
   7.8271926  -0.20888174  -0.32604618 -0.0065575379    1.0208705 
   10.389185  -0.41074017  -0.50030471  -0.10921629    1.0094412 
   13.348229  -0.65826348  -0.58721183   -0.1777967    1.0117904 
   17.535525  -0.73635292  -0.72486941  -0.14609367    1.0082072 
    15.01873  -0.50243234  -0.44131955  0.028748397    1.0061283 
    12.27982  -0.50932781  -0.35622928  -0.02345121    1.0101656 
   16.971359  -0.72596757  -0.50270118 -0.048622404    1.0106604 
   10.493436  -0.53545432  -0.68466592  -0.26027892    1.0059598 
   16.673035  -0.56448369  -0.41346647  0.066792768    1.0172245 
    14.27739  -0.64689905  -0.78220031  -0.23863669     1.011958 
   12.225619  -0.88862435  -0.68358948  -0.37858628    1.0146085 
   19.082775  -0.42805728  -0.50395534   0.17008619    1.0149815 
   11.631987  -0.51835605  -0.47669339  -0.10979183    1.0092627 
   18.133144  -0.52156761  -0.57983168  0.053738477    1.0143304 
   19.137585  -0.55999333  -0.72113529 -0.0026447969    1.0106195 
   16.068081  -0.82221476  -0.75934662  -0.25517801    1.0130532 
   15.997766  -0.43749037  -0.47487657  0.077075407    1.0162653 
   15.256442  -0.64297259  -0.51153453 -0.068705497    1.0141502 
   12.814222  -0.59603901  -0.76724455  -0.25450106    1.0116926 
   14.791808  -0.51657227  -0.72090862  -0.12568017    1.0120001 
    17.32562  -0.45290854  -0.65460314  0.023764833    1.0160735 
   18.116141  -0.62590364  -0.57634702 0.0027460567    1.0073919 
   17.256078  -0.48222695   -0.5764849  0.045846692    1.0141307 
    16.45361  -0.38549087  -0.45357652   0.12891996    1.0140757 
   10.556846  -0.65188227  -0.60915765  -0.27862509    1.0082784 
   14.488805  -0.86404075  -0.78176892  -0.33994468    1.0070191 
   14.540939   -0.4413615  -0.51949293 0.0042707411    1.0109691 
    12.07622  -0.54198548  -0.75482061  -0.24586237     1.010379 
   11.336372  -0.45478157  -0.63375908  -0.16639128    1.0109649 
   17.375116  -0.40179541  -0.45917214   0.14868677    1.0057786 
   13.822571  -0.52017569  -0.67587616  -0.13727356    1.0106024 
   16.856604  -0.62710049  -0.72790988  -0.11561838    1.0146221 
   17.769939  -0.48536335  -0.43005223   0.13462351    1.0064575 
   18.325494  -0.83433339  -0.68889308  -0.15076342     1.017599 
   7.5982751  -0.41568851  -0.64050209  -0.27481946    1.0116242 
     17.9167  -0.66008868  -0.55364059 -0.0096412874    1.0113263 
   12.675889    -0.597999  -0.71972873  -0.23633422    1.0139861 
   20.166208  -0.47890645  -0.51347141   0.17601802    1.0122052 
   15.967398  -0.57075087  -0.67668199 -0.091469822    1.0087396 
   18.038712  -0.71617601  -0.90091414  -0.20725467    1.0113659 
   14.861687  -0.47884688  -0.40009298  0.055919645    1.0124476 
   13.137629  -0.60189992  -0.59806651  -0.16206225    1.0109308 
   7.6111529  -0.46591676  -0.49035122  -0.22442889    1.0125055 
   10.495217  -0.66350833  -0.74048294  -0.35215508    1.0082873 
    14.90755  -0.50667561  -0.36312792  0.062016561    1.0122926 
   13.380926  -0.57416281  -0.41951428 -0.050807666     1.007343 
   16.688119  -0.69489795  -0.56655812  -0.07445741     1.015124 
   20.655707  -0.70160132  -0.75988967 -0.042221926    1.0119363 
   12.224329  -0.44804815  -0.35857379 0.0041666554    1.0160725 
   14.803816  -0.53759452  -0.51200125 -0.031337341    1.0125413 
   14.683228  -0.69344418  -0.50866335  -0.11161283    1.0124904 
   14.888493  -0.83883798  -0.67837312  -0.26232244    1.0079018 
    15.55065   -0.6120827  -0.53558088 -0.055476775    1.0150443 
   16.422607  -0.65729577  -0.57841698 -0.070436134    1.0153546 
    18.32044  -0.57050559   -0.5428873  0.053984887    1.0062657 
   12.544583  -0.64948448  -0.56428573  -0.18873233    1.0098371 
   7.8788248  -0.46693747  -0.48926888  -0.21547568    1.0107789 
    12.54614  -0.64352761  -0.54695411  -0.17703621    1.0063834 
   12.465292  -0.54838549  -0.51949955   -0.1184328    1.0170658 
   22.308854  -0.94081431  -0.65425483 -0.053906114    1.0056719 
   12.791803  -0.70058085  -0.40250411  -0.12514903    1.0147113 
   9.4943705  -0.69775651   -0.5500718  -0.30743514    1.0116892 
   18.039121  -0.64124391    -0.634443 -0.036539412    1.0119246 
   10.421227  -0.42990978  -0.62450283  -0.17983207     1.009559 
   10.993924  -0.53592649  -0.53197156   -0.1674849    1.0133343 
   15.536971   -0.7080736  -0.66290892  -0.16759222    1.0114858 
   17.268841  -0.72927665  -0.71196482  -0.14499272    1.0146875 
   16.650035  -0.63643695   -0.4234459  0.025059759    1.0143372 
   12.836941  -0.50232671  -0.45932152 -0.052926092    1.0044123 
   18.962339  -0.59049903  -0.54886035  0.062398276    1.0147289 
   18.032491  -0.63489859  -0.71301845 -0.072875495     1.011938 
   13.880391  -0.54699625  -0.60499771  -0.11331727    1.0087699 
   18.421062  -0.71748071  -0.60481668   -0.0471133     1.010491 
   10.120563  -0.46645901  -0.56063904  -0.17619692    1.0118196 
   20.536027  -0.73129422  -0.74517006   -0.0536979    1.0115576 
   20.554658   -0.7163313  -0.66971146 -0.0078661074    1.0125407 
   11.371362  -0.62331689  -0.58891695  -0.22707152    1.0090856 
   13.079434  -0.27678776  -0.39077843   0.10219805    1.0149052 
   14.201925  -0.36591046  -0.42372085  0.078581852    1.0173516 
   24.520743  -0.90606426   -0.7214778 0.0035870871    1.0109114 
   11.306257   -0.5663614   -0.5339069  -0.17325891    1.0197489 
   14.346724  -0.62215045  -0.48209782 -0.073900007     1.012621 
   18.125941  -0.52643358  -0.43909935   0.12143156     1.013447 
   11.226521  -0.62134689  -0.34087857  -0.10689535    1.0090523 
   14.539519  -0.68050108   -0.6243164   -0.1677581    1.0131553 
   14.081707  -0.62753374    -0.648236  -0.16849463    1.0014692 
   17.611631  -0.60000354  -0.55447912 0.0098130382    1.0154405 
   15.113741  -0.54832547  -0.54739535 -0.044069046    1.0061619 
   15.445013  -0.74010639  -0.75158904  -0.23101393     1.014102 
   15.630695  -0.55864952  -0.55717533 -0.036889249    1.0130853 
   14.716315  -0.78609482  -0.53866615  -0.17183665    1.0173499 
    16.88413  -0.71121556  -0.57182923 -0.078718073    1.0137672 
   17.886922  -0.58040095  -0.56516128  0.023449604     1.014478 
   17.098885  -0.72400815  -0.69072527  -0.13740387    1.0081032 
   11.654491  -0.55624698  -0.39826073 -0.088770824    1.0085674 
   15.043373  -0.58033655  -0.75076189  -0.16410346    1.0120474 
   14.655267  -0.43284857  -0.50428787  0.019940691    1.0140551 
    19.21618  -0.65119423  -0.55399059  0.037946915    1.0123406 
   12.014488  -0.62649582  -0.68043941  -0.25298469    1.0104046 
   18.701641  -0.52676019   -0.7900937 -0.035038895     1.013314 
   11.957698   -0.6367242  -0.52777551  -0.18365991    1.0098996 
   18.369835  -0.65721881  -0.62135295 -0.026958035    1.0111229 
   19.354103    -0.749101   -0.6852066 -0.072017042    1.0108539 
   13.048631  -0.50008951  -0.42968533 -0.029933061    1.0110472 
    16.68845  -0.50978874    -0.553293  0.024740809    1.0127063 
   18.588661  -0.59328608  -0.56637022  0.039793894    1.0112652 
   12.850846  -0.53928996  -0.46020913 -0.071388009    1.0144933 
   14.301949  -0.56122257  -0.62984261  -0.11880097    1.0129886 
   10.516781  -0.70490869  -0.47818145  -0.24098568    1.0094366 
   24.591647  -0.61343842  -0.63486191   0.19557142    1.0113203 
   14.256312  -0.29832644  -0.43597088   0.10806173    1.0125877 
   18.406897  -0.64149275  -0.52609601  0.029768872    1.0084923 
   16.073859  -0.64278543  -0.90621254  -0.23870368    1.0093528 
   12.720994  -0.44403296  -0.55438581 -0.075176246    1.0078569 
   10.401769   -0.4121123   -0.6242841  -0.17147257    1.0136242 
   11.501377  -0.42588872  -0.55548855  -0.10730941    1.0084388 
   16.834288  -0.55789326  -0.67809415 -0.056850759    1.0116835 
   15.413326  -0.65288735  -0.49055276 -0.057942511    1.0129796 
   13.388667  -0.70030478   -0.5424103  -0.17506865    1.0124118 
   10.564095  -0.12777282  -0.47685746  0.049821365     1.009399 
   17.043132  -0.44609596  -0.51663417  0.086739325    1.0075103 
   14.444275  -0.59143607  -0.73079804  -0.17964123    1.0099809 
   15.848283  -0.82306425  -0.72950396  -0.24800802    1.0107393 
   9.5445913  -0.30823869  -0.32097774 0.0035448292    1.0073131 
   17.874074  -0.43468467  -0.34127552   0.20782236    1.0076958 
   12.376951  -0.53340977  -0.52880422  -0.11854195    1.0106555 
   13.543636  -0.69742686  -0.65037466  -0.22244622    1.0093827 
   14.909356  -0.62994268  -0.69854268  -0.16726415    1.0122293 
   14.043662  -0.41953488  -0.50766703  0.004521111    1.0071253 
   16.948155  -0.61343568  -0.65940516 -0.071481922    1.0094456 
   13.764257   -0.6028257  -0.47328808 -0.079248322    1.0156035 
   17.797024  -0.91383346  -0.71511776  -0.22124147    1.0115563 
   13.805955  -0.73044231    -0.622979  -0.21651216    1.0118985 
   14.425972  -0.64759932  -0.49592149 -0.090894668    1.0066018 
   12.822048 -0.066827909  -0.41594839   0.18601344    1.0126671 
   17.131684  -0.83987888  -0.78497248  -0.24136954    1.0107065 
   18.013904   -1.0030107   -1.0224332  -0.41225846    1.0170179 
   17.404649  -0.47216083   -0.7361076 -0.023979238    1.0125594 
   17.901199   -0.3530201  -0.36000536    0.2401939    1.0080566 
   17.822731  -0.48618495  -0.62138396  0.040306587    1.0116747 
   13.661309  -0.72796796  -0.70215789  -0.25968596    1.0121059 
   15.135046  -0.95390494  -0.85826299  -0.40158242    1.0084687 
   14.096581  -0.33355718  -0.48796893  0.059122989    1.0128163 
   12.322321  -0.17605152  -0.30728986   0.16907334    1.0086164 
   13.818342  -0.69016661  -0.74891584  -0.25892981    1.0107646 
   18.488956  -0.74490297  -0.96819725  -0.24025157    1.0130309 
   16.276366  -0.71968644  -0.63987776  -0.13723657    1.0096393 
   14.657047  -0.46945241  -0.38011851  0.063782756    1.0051572 
   14.597647  -0.37923289  -0.35220235   0.12087061    1.0082387 
    18.48651  -0.68796069  -0.73012081 -0.092823742    1.0079847 
   11.144939  -0.64880427  -0.72654732  -0.31617784    1.0102527 
   11.634845  -0.61685342  -0.48830096  -0.16474902    1.0091398 
   12.208435  0.029703436  -0.17456573   0.33451669    1.0101229 
   19.630989   -0.4676323  -0.48546695   0.17781668     1.013235 
   17.662739   -1.0024898  -0.96277925  -0.39387654     1.012079 
   17.440924  -0.74223926  -0.51056742 -0.045039214    1.0088957 
   10.203448  -0.33986738  -0.44094778 -0.050292637    1.0148843 
    12.46968   -0.3176252  -0.36161701  0.076034898    1.0166692 
   13.507205  -0.45671268  -0.61202052 -0.084126423    1.0153858 
   15.374784  -0.89103605  -0.83362547  -0.34983796      1.00897 
    18.38439  -0.83168129  -0.84275182  -0.22440357    1.0054601 
   13.042922  -0.36956675  -0.40330454  0.048328425    1.0133972 
   12.684097  -0.53424586  -0.67185835  -0.18024888    1.0152088 
   17.004569  -0.66455347  -0.60437319 -0.067644365    1.0095569 
   18.451075  -0.91594754  -0.96356796  -0.32472191    1.0135239 
    14.19945  -0.51467686  -0.41058399   0.01068459    1.0112613 
   18.661579  -0.40501174   -0.5041103    0.1674916    1.0149817 
   13.207774  -0.38925803  -0.51607973 -0.012409735    1.0069149 
    16.69186  -0.73874997  -0.60247519  -0.11421726    1.0107964 
   13.645908  -0.58688259  -0.64313288  -0.16014415    1.0163559 
   14.042498  -0.53231479   -0.6865233  -0.14133576    1.0136748 
    15.43204  -0.41496055  -0.47360123  0.070120425    1.0066037 
   17.338785  -0.58982752  -0.58621129 -0.010059917    1.0123117 
   15.873994  -0.70770271  -0.70342939  -0.17643291    1.0127027 
   20.275643  -0.93196921  -0.72603214   -0.1531459     1.011135 
   15.498811  -0.38043718   -0.5076482  0.072584338     1.017681 
   12.080993  -0.49858674  -0.59684146  -0.14501433    1.0083808 
   16.892998  -0.33830139  -0.48039567   0.15375139    1.0099408 
   14.870195  -0.54975035   -0.6256403 -0.092022157    1.0114719 
   15.818534  -0.39491844  -0.65696251 0.0013439766    1.0126084 
   19.560414   -0.6275135  -0.62135114  0.027581467    1.0142269 
   11.373287  -0.46966928   -0.5264183  -0.11893421    1.0118707 
   24.488487  -0.66232022  -0.65325011   0.15849775    1.0102986 
   14.496315  -0.42372286  -0.58036684 -0.018834341    1.0074311 
   14.250861  -0.65482205  -0.73391429  -0.21933948    1.0116001 
    15.78144  -0.48062633  -0.57891812 -0.0037242287    1.0157591 
   12.638961  -0.49535674  -0.66924786   -0.1610036     1.010284 
   9.1283311  -0.48983995  -0.50082507  -0.19105481    1.0157619 
   12.684793  -0.58990969  -0.57199246  -0.15812465    1.0107088 
    14.46721  -0.64641099  -0.43477606 -0.058353206    1.0117995 
   12.874553  -0.41427104  -0.65058223  -0.10327488    1.0109406 
    14.77848  -0.45760745   -0.5521299 -0.012252675    1.0093159 
   12.154641  -0.86563579  -0.79058134  -0.42295385    1.0105696 
   25.074745   -0.6322548  -0.52622042   0.25658724    1.0128746 
    17.25082  -0.41828018  -0.57949362  0.076140449    1.0093037 
   24.698424  -0.96723825  -0.93229775   -0.1264872    1.0089995 
   15.207066  -0.50635673  -0.65199969 -0.072276013    1.0083824 
   13.497744  -0.60886719    -0.590308  -0.14966278    1.0143257 
   22.854515  -0.56839518  -0.77717402  0.089032569     1.011705 
   14.453163  -0.50836458  -0.67421738  -0.10951888    1.0108132 
   11.477456  -0.59357529  -0.67916708  -0.25378932    1.0146132 
   12.921289  -0.56131095  -0.69415719  -0.19702442    1.0153581 
   15.025898  -0.41995581   -0.4401964   0.07078715    1.0120022 
   15.605213  -0.58325129  -0.53924515  -0.04107445    1.0114693 
   12.703293  -0.66881815  -0.55829198  -0.19011196    1.0089587 
   14.142089  -0.50843039  -0.55245458 -0.059039509    1.0092256 
   5.9155057  -0.37087702  -0.42189377  -0.19920187    1.0120758 
   18.388237  -0.35386842  -0.43181735   0.22009834    1.0114596 
   15.515783  -0.58613497  -0.61306228 -0.082405858    1.0158727 
   10.978383  -0.67124927  -0.52661077  -0.23298391    1.0113992 
   13.401413  -0.38455324  -0.31472271  0.097075801    1.0075212 
   15.865538  -0.56999531  -0.58818328 -0.050238034    1.0134195 
   14.509873   -0.6293403  -0.59231691  -0.12716616     1.008954 
   11.007711  -0.60040038  -0.74565143   -0.3061022    1.0107366 
    14.67917  -0.53503506  -0.63775445 -0.097089084    1.0126941 
    16.46189  -0.42722597  -0.59939575  0.035418812    1.0136241 
   16.576935  -0.59404786  -0.52018451 -0.0045516841    1.0169391 
   12.875375  -0.61341187  -0.56065666  -0.15785512    1.0027092 
   14.491022  -0.64752211   -0.7242019  -0.20282792    1.0151176 
   13.691262  -0.55229524  -0.67567385  -0.15760914    1.0112934 
   9.3809162  -0.37046645  -0.38826675 -0.066669396    1.0072638 
    11.80833  -0.67253607  -0.66968716   -0.2775006     1.012128 
   12.012617  -0.47945795  -0.59317172  -0.13589428    1.0205522 
   8.8961481  -0.46709283  -0.54612277  -0.21006953    1.0155439 
   15.601217   -0.4164846  -0.53283516  0.045380689    1.0112494 
   11.607427  -0.41687058   -0.5697166  -0.10637937     1.017324 
   15.289323  -0.55453214  -0.59755601 -0.066399965    1.0087473 
   16.468211  -0.41559568  -0.68110625 0.00058938838     1.004475 
   9.1159253  -0.59621905  -0.60397319  -0.29623194    1.0110183 
   16.977725  -0.68892767  -0.57315186 -0.065115609    1.0106837 
   13.872824  -0.61079984  -0.68370789   -0.1848264    1.0123974 
   20.056384  -0.86750715  -0.65893546 -0.094675164    1.0134384 
   13.522141  -0.49837431  -0.59267861 -0.094788437    1.0068161 
   16.535169  -0.53991003  -0.59110212 -0.014333788    1.0102125 
    11.68771  -0.57330275  -0.54603356  -0.17007781    1.0187694 
   19.980946  -0.80178944  -0.88531434  -0.17752036    1.0084084 
   11.035143  -0.53861454  -0.52279496  -0.16286664    1.0089762 
   10.587438  -0.34647221  -0.43202411 -0.036333568    1.0084899 
   9.8726579  -0.48701407  -0.50878716  -0.16881202    1.0107155 
   16.979626  -0.60818005  -0.47605676  0.023869118    1.0124458 
     17.2622  -0.67247058  -0.69343475  -0.10754601    1.0179067 
   14.074635  -0.48312842    -0.477402 -0.011110698    1.0029158 
   14.828409  -0.57034283  -0.34458479  0.036816473    1.0141278 
   11.345815  -0.49833375  -0.53962382  -0.14078497    1.0110734 
   12.559917  -0.51734428  -0.57148041  -0.12574845    1.0192967 
   16.416516  -0.73158601  -0.72136962  -0.17926063    1.0061834 
   20.172379  -0.61605872   -0.7162042 0.0062811844    1.0096074 
   18.656535  -0.61985334  -0.55648791  0.033713876    1.0197642 
   16.842602  -0.69147931  -0.54534595  -0.05699256    1.0113004 
   15.397134  -0.50849066  -0.64371353 -0.062864296    1.0058318 
   11.217904  -0.66270604  -0.57008331  -0.24246453    1.0125833 
    13.88408  -0.47662692  -0.46762885 -0.0093252156    1.0124981 
   17.720382   -0.4894277  -0.60822575  0.041852662      1.00736 
    12.93122  -0.27316911  -0.44475846  0.072076879    1.0167144 
   15.566022  -0.65171854  -0.70860905  -0.16129641    1.0142135 
   14.335391  -0.62082515  -0.75476145  -0.20994693     1.014655 
   20.136965  -0.54946775  -0.53082531   0.13108563    1.0091571 
   11.575731  -0.47188246  -0.37591225 -0.038039658     1.017957 
   17.126257  -0.47184212  -0.67861197 -0.0043518274    1.0098439 
    11.36684  -0.58245068  -0.54452963  -0.18459547    1.0084111 
   17.585504  -0.55199312   -0.6379233 -0.0087747475    1.0154121 
   12.916478  -0.69015119  -0.66728533  -0.24816897    1.0117686 
   23.551107  -0.55350526  -0.58123458   0.21766696    1.0129303 
   15.658585    -0.669203  -0.58986476  -0.10758104    1.0085952 
   15.917594  -0.69289138  -0.61181527  -0.12176686    1.0105732 
   13.995423   -0.5175381  -0.44845458  -0.01648223    1.0149353 
   16.180774  -0.28864673  -0.47006526   0.16000313    1.0078583 
   12.608852  -0.58647669  -0.69747157  -0.22167906    1.0136721 
   14.164795  -0.75669011  -0.59677599  -0.20457321    1.0146155 
   14.150265  -0.96358583  -0.49238052  -0.25630769    1.0105141 
   21.400993  -0.72618868  -0.91724195  -0.10834887    1.0113827 
   9.9104578  -0.56692624  -0.57546841  -0.24084873    1.0126695 
   14.409688  -0.48179311  -0.71652933  -0.11883828    1.0084093 
   14.132735  -0.45490966  -0.55397347 -0.033350397    1.0078407 
   19.047408  -0.55252306  -0.61558715  0.050858504    1.0155623 
   12.937002  -0.67900775  -0.60791112  -0.21222604    1.0106045 
   14.990966  -0.50667277  -0.45188602  0.020419474    1.0118602 
    14.85401   -0.5446902   -0.5119846 -0.033203718    1.0127737 
   19.005872  -0.55582011  -0.46720944   0.12201429    1.0130664 
   13.533309  -0.50365427  -0.65446005  -0.12794685    1.0116199 
   17.675409  -0.51411398  -0.51727447   0.07348609    1.0132848 
   12.131575  -0.68957486  -0.60290022  -0.24185172    1.0162979 
   13.801886  -0.52093094  -0.68205969  -0.14143243    1.0176821 
    19.15644  -0.75971015  -0.74022851  -0.11142132    1.0117062 
   15.966776  -0.55887117  -0.53837389 -0.016396655     1.010176 
   15.982475   -0.3150292  -0.40680036    0.1718344    1.0098675 
   15.066998  -0.43137549  -0.66566646 -0.046287721    1.0145029 
    13.29142  -0.56806429  -0.77421291  -0.22809128    1.0058936 
   14.711959  -0.58262883  -0.49654988 -0.049190718    1.0110546 
   18.297653  -0.48901223   -0.4521434   0.13934394    1.0114806 
   13.785765  -0.60765881  -0.45847464 -0.073541216     1.012772 
   17.986183  -0.47820606  -0.35354412   0.18366434    1.0141897 
   23.149359  -0.78111871  -0.77164934 -0.0047387394    1.0130927 
   17.460402  -0.43718719  -0.63382076  0.046509438    1.0159318 
   10.989808  -0.55820942  -0.45757003  -0.14156278    1.0136037 
   15.102192  -0.70977181  -0.41388724 -0.058423109    1.0108383 
   12.913027  -0.66133697  -0.55248407  -0.17647629     1.008064 
   20.281592  -0.73241605  -0.76438364 -0.072346769    1.0089858 
   16.670549  -0.72376856  -0.66814599  -0.14027231    1.0169056 
   16.205027    -0.425323  -0.54390516  0.055553471    1.0167453 
   17.572749  -0.65135694  -0.58476234 -0.032301348    1.0060931 
   13.513581  -0.46063832  -0.49073921  -0.02523607    1.0065237 
   16.907883  -0.61632584  -0.58373897 -0.036436307    1.0110704 
   8.1888213  -0.57153487   -0.6084019  -0.31700767    1.0111304 
   20.370574  -0.54349656  -0.56185073   0.12634548    1.0138111 
   10.245292  -0.46630198  -0.52111839  -0.15220047    1.0127636 
   13.621645  -0.61259096  -0.65365366  -0.17906746    1.0070571 
   14.775701  -0.68129931  -0.67761448  -0.18693352    1.0120578 
   4.3332303  -0.53667149  -0.64888413   -0.4483368    1.0044073 
   17.305042    -0.488356  -0.56640001  0.049456728    1.0146823 
   17.079451  -0.51821253  -0.35305858   0.13367948    1.0169197 
   17.889946  -0.73203643  -0.64328375 -0.091328553     1.015473 
   12.683344  -0.48085864  -0.67036395  -0.15283317     1.010927 
   16.085439  -0.71888063  -0.75781302  -0.20216553    1.0089365 
   13.885198  -0.69787125  -0.65323996  -0.21271566    1.0132688 
   16.674389  -0.35488067  -0.44518168   0.15578178    1.0100716 
   14.727478   -0.4328059  -0.52026185  0.014382064    1.0121363 
   9.8314715  -0.53401617  -0.58319834  -0.23089154    1.0104378 
   15.947509  -0.76566719  -0.70018007  -0.20134001    1.0115374 
   15.383248  -0.37225672  -0.63014103   0.01157607    1.0101985 
   13.003409  -0.52863909  -0.46591797 -0.063831567     1.011173 
   13.587143  -0.48813275  -0.59657542 -0.089449319    1.0100296 
   16.274327   -0.7709097  -0.69093753  -0.18844606    1.0089902 
   12.812283  -0.56317244  -0.42031641 -0.064668315     1.013345 
   12.425369  -0.43011622  -0.39358994 0.0023258729     1.006253 
   14.012629  -0.50119423  -0.47966029 -0.023339623    1.0079904 
   11.907004  -0.67384205  -0.74827701  -0.31415939    1.0149776 
   13.182853  -0.58363906  -0.60654853  -0.15566537    1.0131471 
   18.331876  -0.45071396  -0.53280008    0.1193055    1.0112833 
   15.201229  -0.49478927  -0.66917258 -0.075273307    1.0072545 
   14.821549  -0.66035207  -0.41968513 -0.045966949    1.0118167 
   16.580426  -0.89235255  -0.44830462  -0.11764772    1.0087031 
   14.436223  -0.65796101  -0.66455733  -0.18005174    1.0115478 
   18.744369  -0.51133362  -0.54487486  0.096708049    1.0145243 
   9.2348151  -0.61982598     -0.58702  -0.29559582    1.0139915 
   14.407756  -0.59112048  -0.53001097 -0.080307181    1.0113194 
   13.285597  -0.54113347  -0.59082238  -0.12312468    1.0104456 
    12.44487  -0.57968098  -0.70005474  -0.22503885     1.009616 
   13.107779  -0.40876134  -0.36719493  0.048947835    1.0105341 
   16.490041  -0.38856906  -0.43846092   0.13615305    1.0157719 
   17.224006  -0.38940022  -0.54338912   0.10773887    1.0146088 
   12.453136  -0.71542558  -0.62514151  -0.25517901    1.0085478 
   16.945018  -0.56987143  -0.69453635 -0.067369946    1.0145232 
   15.261197  -0.33378232  -0.41673579    0.1334475    1.0136438 
   12.142297   -0.6201014   -0.5980006  -0.20430778     1.003539 
   14.810831  -0.81788025  -0.60181056  -0.21615103     1.012912 
   19.230345   -0.5635679  -0.47639765   0.12102871    1.0119997 
   14.544572  -0.60325857  -0.41296742 -0.023293911    1.0065781 
   20.152579  -0.66837568  -0.67731517 -0.001092805     1.011351 
   18.522808  -0.58788677  -0.85204978  -0.10254134    1.0122465 
   15.007923  -0.63329491  -0.86826472  -0.25051572    1.0126621 
   16.470847    -0.705159  -0.68392793  -0.14551522    1.0133815 
   10.027573   -0.6905966   -0.4595242  -0.24080797    1.0115125 
   21.748516  -0.51732243  -0.68802063     0.122279    1.0081815 
   20.160188  -0.77810904  -0.79068774  -0.11239212    1.0106769 
   15.488324  -0.66436312  -0.85004137  -0.24092478    1.0123937 
   14.009923  -0.64866626  -0.56503172  -0.13985155    1.0078249 
   18.065885  -0.48223648  -0.31228009   0.20493789    1.0114205 
   17.675728  -0.66153424   -0.6001371 -0.041644752     1.009764 
   15.445562  -0.89252841  -0.64026988  -0.25154707    1.0056461 
   14.749299  -0.75896286  -0.70223047  -0.23895335    1.0122407 
   12.007415  -0.35303547   -0.5259011 -0.039221116    1.0088367 
    11.16042  -0.37208004  -0.33678163  0.017583156    1.0110686 
   12.970101   -0.5251148  -0.48467113 -0.072556252    1.0071415 
   16.927373  -0.88463385  -0.67219174  -0.21416704      1.00732 
   14.839836  -0.73126221  -0.48931333  -0.11562659    1.0010873 
    18.48462  -0.38876744  -0.42950407   0.20701826    1.0154343 
   16.057583  -0.45280302  -0.38088002   0.11841125     1.004944 
   14.214726  -0.81989835  -0.63552665  -0.25388831    1.0120645 
   18.853778  -0.68838808  -0.78141341  -0.10644147    1.0113785 
   14.020016  -0.36486151  -0.41524716  0.077279527    1.0104551 
   14.907277  -0.39828192  -0.37287303   0.11133175    1.0117692 
   13.195478  -0.70708316  -0.48271086  -0.15504773    1.0097735 
   17.611616  -0.78487634  -0.86066843  -0.23571852    1.0107083 
   6.6963788  -0.43877562  -0.29704124  -0.14469581    1.0128659 
   18.775486  -0.55119687  -0.52373115  0.088385527    1.0098415 
   16.308391   -0.4201536  -0.38508523   0.14099363    1.0113384 
   10.099215  -0.55827301  -0.61193835  -0.24846517    1.0143853 
   13.529192  -0.51589734  -0.69487119  -0.15441121    1.0050361 
   16.027543  -0.71700438  -0.43738151  -0.04294151    1.0138308 
   16.633728  -0.56711208  -0.47010547  0.035848811    1.0089892 
   17.184891  -0.71742266  -0.65713871  -0.11445099    1.0188328 
   14.748864  -0.55993787  -0.52193035 -0.049305324    1.0120929 
   10.552892  -0.59953653  -0.49671258   -0.1963615    1.0163358 
   15.642993  -0.55333874   -0.6347443 -0.072608412    1.0169575 
   13.508249  -0.42953002  -0.28593531  0.092542313    1.0174888 
    9.615838  -0.76144342  -0.66004466  -0.39021611    1.0102916 
   16.626894   -0.5014405  -0.74070294 -0.066841927    1.0088272 
   15.540457  -0.49715223  -0.56261808 -0.011869916    1.0104708 
   14.689339  -0.56587947  -0.51925822 -0.052924217    1.0117622 
   13.963035  -0.32399352  -0.52450572  0.041184885    1.0136207 
   15.938696  -0.55998932  -0.67819129 -0.087800438    1.0078802 
    12.81606  -0.58318381  -0.62491565  -0.17684773    1.0059791 
   16.205058  -0.47591352  -0.45209618  0.076163746    1.0140971 
   15.441598  -0.44687661  -0.39041512  0.096074075     1.010832 
   20.428113   -0.8247877  -0.74418381  -0.10354866    1.0126666 
    12.49097  -0.59623092   -0.5156144    -0.139557    1.0027515 
   18.725801  -0.48720967  -0.57983913  0.090668971     1.015408 
    18.64908   -0.6169272  -0.49439414  0.065975341    1.0111247 
   11.422707  -0.46064235  -0.46917988 -0.084154227    1.0129917 
   13.967253  -0.63815165  -0.85898605  -0.28299374    1.0149261 
   12.288976  -0.48102057  -0.62872966  -0.14524258    1.0073271 
    12.21709  -0.69600756  -0.49582187  -0.18867838    1.0109976 
    14.74558  -0.46681946  -0.53694142 -0.010361095    1.0134726 
   22.256644  -0.61906219  -0.50068914   0.18201246    1.0165462 
   15.740618  -0.58940557  -0.73389446  -0.13696275    1.0085362 
   13.421367   -0.5298028   -0.5990627  -0.11705386    1.0161233 
   16.435304  -0.36994414  -0.41757873   0.15408205    1.0105256 
Loop time of 1798.66 on 12 procs for 50000 steps with 58000 atoms

Performance: 24017.909 tau/day, 27.799 timesteps/s
100.0% CPU use with 12 MPI tasks x 1 OpenMP threads

MPI task timing breakdown:
Section |  min time  |  avg time  |  max time  |%varavg| %total
---------------------------------------------------------------
Pair    | 0.022415   | 681.23     | 1443.7     |2105.0 | 37.87
Neigh   | 0.083412   | 81.045     | 260.76     |1273.4 |  4.51
Comm    | 1.1301     | 428.18     | 1107.7     |2308.6 | 23.81
Output  | 0.93744    | 14.946     | 42.79      | 509.0 |  0.83
Modify  | 0.010586   | 5.792      | 18.505     | 337.9 |  0.32
Other   |            | 587.5      |            |       | 32.66

Nlocal:        4833.33 ave       14606 max           0 min
Histogram: 8 0 0 0 0 0 0 0 0 4
Nghost:        3756.17 ave        9015 max           0 min
Histogram: 4 0 4 0 0 0 0 0 0 4
Neighs:       163035.0 ave      506187 max           0 min
Histogram: 8 0 0 0 0 0 0 0 0 4
FullNghs:     326069.0 ave      987462 max           0 min
Histogram: 8 0 0 0 0 0 0 0 0 4

Total # of neighbors = 3912830
Ave neighs/atom = 67.462586
Neighbor list builds = 5000
Dangerous builds = 5000

Please see the log.cite file for references relevant to this simulation

Total wall time: 0:29:58
