Lammps .data input file

30000 atoms

1 atom types

-18.0 18.0 xlo xhi
-18.0 18.0 ylo yhi
0 67.31984257692413 zlo zhi

Masses

1 1

Atoms

1 1 10 5.5980589154038185 -1.1789336045569672 0.32890362555071573
2 1 10 -0.5690509752533336 5.359125679134553 0.07517549243265062
3 1 10 7.674121824838626 -0.6322149557702968 0.13386308508830758
4 1 10 -7.604031242914302 -3.80569486707438 0.06344210511776541
5 1 10 3.755408484047382 -1.3280305972259618 0.181088229320168
6 1 10 -1.8645828984961117 6.843391282600473 0.24418959670459328
7 1 10 1.2216860889715406 7.081541115075005 0.032820967964578625
8 1 10 -5.703506903824334 6.667858038775304 0.11944300238323909
9 1 10 -3.338617184322172 5.327086540918128 0.0385274544025152
10 1 10 2.4868051948777103 4.358570122569554 0.014911802007624252
11 1 10 -0.12282543889001378 1.2676023435965462 0.23309772813126622
12 1 10 -5.316538790220569 4.56375372886395 0.09569728633419872
13 1 10 3.872051130554823 6.8349417622304305 0.08499779423403385
14 1 10 7.510722961492411 5.339784335181617 0.15090953589809242
15 1 10 7.430424961622326 -2.1377509024454247 0.25126691671185764
16 1 10 -3.233341570421251 -2.255809206914127 0.27089795380328535
17 1 10 3.2371624265224597 5.610201406856236 0.19568543342509698
18 1 10 -6.497813568617405 1.2484207296375796 0.0701538839732105
19 1 10 0.8692619634929266 9.21414768616884 0.1290546382489726
20 1 10 -5.125507724927268 -3.8806185817899235 0.2768396710460507
21 1 10 -1.6384176700003479 -1.072496586948304 0.3058687718266656
22 1 10 7.900975553506051 4.4742782991202015 0.1253976452890284
23 1 10 2.4185214914025233 -3.0092490506639202 0.12449240108573684
24 1 10 2.0314538442028205 0.9311944384944449 0.26348831361617653
25 1 10 5.673040222272676 -7.160977016720665 0.2945385224983676
26 1 10 5.466908848569307 -7.72301703482646 0.12173458206432107
27 1 10 0.9588425836429659 -4.817315091372668 0.023238014785049707
28 1 10 0.7656305935532263 -1.2700521868665082 0.07401521564768561
29 1 10 -5.493343617104788 4.08944616615158 0.20913674054136133
30 1 10 2.2609037529738214 6.439784102755687 0.26819116404466253
31 1 10 0.896748218779556 7.073264869242742 0.23663677611879402
32 1 10 5.79865350697627 2.808820804992626 0.2602765647130679
33 1 10 -2.4382479375697375 -3.6679628894134417 0.2295821824701261
34 1 10 -2.6131398609276513 2.790542830457228 0.29899828647065463
35 1 10 -0.1466487963333887 1.6801795890147637 0.1726177191724764
36 1 10 -0.10531567064075699 2.8982658741629157 0.20633272602304714
37 1 10 -2.2868672481190813 -8.330879027692504 0.05803522873984256
38 1 10 0.20003416507753607 3.966486905601411 0.19699719510147656
39 1 10 3.7242958539830453 6.266221592554419 0.006880677753503799
40 1 10 -7.232936287376734 -1.3729828114451894 0.008545851999013313
41 1 10 4.6713536808736915 4.579866465426318 0.009826886816531853
42 1 10 3.4724880711670703 0.9211954763976 0.0022274301845776247
43 1 10 2.1681700343334263 8.99869699792035 0.09428413173535172
44 1 10 -7.519374015006171 3.773739438884973 0.3314090179263165
45 1 10 3.061369004863489 1.2272025395290966 0.04967773794240234
46 1 10 6.98222209611422 6.380653018662495 0.07201782433441148
47 1 10 3.9628147335538335 8.22057002598068 0.13813493723511355
48 1 10 3.7615816723671958 -4.637101082643282 0.26572326362037496
49 1 10 -5.675695380066075 4.3303120578422325 0.025720917798343405
50 1 10 -6.307635270775919 -5.546895983604194 0.08830311268688233
51 1 10 9.453562517809583 -0.8567012044411121 0.26994413325450456
52 1 10 -1.5056528058783363 8.396993625671398 0.15001936215163714
53 1 10 6.5156806913927365 4.616727265799837 0.07956595095967679
54 1 10 5.549508457768985 -5.445725732181737 0.2940776835361789
55 1 10 1.2015361971429142 -2.007760695018968 0.07040003254129967
56 1 10 -3.460751225897458 8.415456272322851 0.25028554350798227
57 1 10 -1.1340397546298697 -2.3023590242950687 0.31446654727922363
58 1 10 6.2611200304137204 -3.5295544871006777 0.1791083884314904
59 1 10 3.851518071447281 -2.9494055866660283 0.32312084041693934
60 1 10 8.064774789782138 -4.422606094655609 0.32623287948872054
61 1 10 1.6560352677373105 -4.98040141141485 0.2350787297131
62 1 10 -6.477151414018042 3.314352051007299 0.05734116128253301
63 1 10 -2.0071141275741207 -2.88537918499217 0.06397633132356859
64 1 10 1.164396091014216 -0.7927952887046426 0.17427882317617255
65 1 10 -7.846774745610148 4.659469650192357 0.03921713618323038
66 1 10 6.565588528581504 -4.520854773474493 0.211228727448944
67 1 10 -6.727036083884231 2.4541257034193658 0.0912629604017099
68 1 10 -0.7423490323731965 2.7907114626654552 0.12125462276951886
69 1 10 2.111736711779688 -4.336502110902102 0.2443294105302915
70 1 10 -7.518835117931325 -4.487921062691867 0.25525782472621755
71 1 10 -2.952781372756717 -1.595637302439706 0.30535190426587633
72 1 10 -2.1671481254172145 -3.9228066977744973 0.28679776750186187
73 1 10 0.6798496482430602 -6.6076732633093975 0.2543935946737026
74 1 10 -4.578242005455355 5.656445204638583 0.18418804953398096
75 1 10 5.491652565173825 7.0434063855610916 0.1058573565560049
76 1 10 -7.751656697144257 4.869941132051092 0.10219078247888023
77 1 10 -1.0906570528518202 -1.2211346517912112 0.053277119913326516
78 1 10 5.694304396775531 4.082022104782972 0.013812641645382847
79 1 10 5.066159366508566 4.546169517087797 0.24265965572488954
80 1 10 -0.634457575594968 9.164299704088602 0.26772332167866886
81 1 10 -2.2715829601029656 -3.9206051473992725 0.08105705806123208
82 1 10 -1.168043417928147 -5.37789543458462 0.26013549493212124
83 1 10 1.9043170258923725 6.041096922417614 0.07145997590620087
84 1 10 6.171072575608583 -7.125273314049978 0.25200127726162963
85 1 10 -5.013545304437551 -2.1990158406063403 0.09622974116305595
86 1 10 -2.98179675214966 -7.793328737143383 0.17885070243630635
87 1 10 4.425024101868428 -5.9821961074351595 0.1160058765255058
88 1 10 2.1171110637854795 -0.8410808173424607 0.22787878603521697
89 1 10 2.795206976846216 -0.0859847758354977 0.004740065276514622
90 1 10 3.156560849761931 5.587087973829403 0.18006469092820063
91 1 10 3.069008122996384 6.434427375284372 0.3271006420913787
92 1 10 1.2212818239437457 9.16420186142516 0.20746318166281713
93 1 10 6.096136010707635 6.8620143518841195 0.3109772964418787
94 1 10 1.5755370335589403 -7.987113749528166 0.15723806557727052
95 1 10 3.237125446953935 1.348296542245614 0.14971807187622999
96 1 10 -5.125504997845209 -7.281766339755604 0.03834682079283601
97 1 10 -9.022930358022856 2.8003642748763133 0.31777201543739647
98 1 10 -1.1101500222269514 4.414007241828451 0.19757154544971778
99 1 10 5.256572889702349 1.4887533949931344 0.06567138568417906
100 1 10 -0.06720531329330935 8.157772732616394 0.2993597362500653
101 1 10 -8.778174694886468 1.370669965846197 0.21365341432756876
102 1 10 -5.9291488852523715 -1.2228811750340987 0.28174763119423063
103 1 10 3.1964884635813666 2.509357349425983 0.010994249483097313
104 1 10 -1.9784262337174585 -2.007257035286349 0.024250062807773094
105 1 10 -0.26880731482125897 6.725453674201654 0.10756157769492516
106 1 10 0.023654525014924505 0.024714102939304594 0.10445255628476845
107 1 10 3.226517310353653 7.304431857644136 0.24219404110823797
108 1 10 -3.3256067030465837 6.8427646972014635 0.08797944833817753
109 1 10 6.988754989379449 -0.9537542826409396 0.1064915366001318
110 1 10 -2.8473521676762026 -5.391392422816876 0.2405333198057954
111 1 10 -1.1346987633204912 9.029808584337076 0.25019665435368843
112 1 10 1.7649083935253405 2.4959504053109347 0.2942792501195651
113 1 10 2.309937635533787 -0.23113834036046316 0.14000901520692044
114 1 10 -0.46120197821766507 3.561855104188129 0.08900933989541415
115 1 10 -7.163375746500555 -1.9127262091747266 0.013916962305599757
116 1 10 -1.8882333893021594 -2.756340147604462 0.2956464585924367
117 1 10 3.2600332188662664 2.8393624356752194 0.08554956322827373
118 1 10 -9.154689090542703 -1.5112772831047574 0.292376556918091
119 1 10 -0.6123736750078705 8.773022262140572 0.33211364142633615
120 1 10 7.096750160550784 6.2966245063893655 0.2454389346005828
121 1 10 -3.2876247543763895 2.1704779863746784 0.15601155071366044
122 1 10 8.043739827633438 2.1749441512225185 0.013555864536893662
123 1 10 4.276395964436584 -3.9543801839500285 0.30325274380008044
124 1 10 3.5260935742527306 8.582672470138524 0.08888263420784595
125 1 10 -9.548208950916395 -0.9177079235985988 0.23429324191590795
126 1 10 -2.998105678380444 -5.3494859750272274 0.2798292993758168
127 1 10 -3.427322297979364 -5.3376612803026395 0.11009601508885397
128 1 10 2.9446823987397064 0.652920615112832 0.27791228085238223
129 1 10 -2.93023136655136 -3.4203676060243566 0.31664879279561686
130 1 10 -3.067460901677191 2.6179875684760656 0.2765818772814483
131 1 10 3.5594378658641923 -0.014376978388184997 0.1264362456921339
132 1 10 2.5540173506951924 -7.749139404601625 0.33023905304512446
133 1 10 -6.138013472742864 5.513979389421771 0.33299068613549526
134 1 10 -4.635312577348912 -5.203816208041602 0.005471366259978035
135 1 10 2.170274877717824 9.314253900811611 0.13484518826941672
136 1 10 1.2281665421032215 -5.458050957789319 0.3014608798682003
137 1 10 1.7289064474229487 4.628606220743918 0.09425750386841848
138 1 10 1.630595005185489 -5.151745724533772 0.266092862252852
139 1 10 4.152680361842848 0.3804724332787957 0.260460452268206
140 1 10 -0.7862731038230565 -3.9461957884796126 0.28897206423618726
141 1 10 -1.8392019415166323 -1.6180974643069674 0.05193865087075512
142 1 10 5.570772232275905 7.815201251310995 0.12347907608288412
143 1 10 -2.3719393334558347 -8.389658066171659 0.08445574216216739
144 1 10 2.299084203286508 -6.550170463674361 0.01119616491444307
145 1 10 -2.7990326785342057 0.3449055970674172 0.30673028829059856
146 1 10 4.788241374157998 6.084837171275698 0.061721870005185364
147 1 10 -2.6454014711092793 6.189300642108238 0.049566502124799044
148 1 10 6.378199396573041 -1.0638199346273225 0.0006679021967995756
149 1 10 -6.4305253628645005 4.216511071577744 0.09433493788018135
150 1 10 -2.578108539110005 7.273051475847114 0.22327930208476443
151 1 10 8.83119324371425 3.1727397374638815 0.028877257714391986
152 1 10 2.6914062682027393 1.713829425287138 0.2295653601403255
153 1 10 -0.37401962346089385 -5.029418281442147 0.13745633423811063
154 1 10 -7.348459461738545 2.446399836298582 0.27012867032323096
155 1 10 -1.501907374247265 2.2277745251147674 0.10402726493312157
156 1 10 -5.069972623204405 6.80031942954548 0.06347420546146654
157 1 10 -7.58850160765787 1.5791964354787518 0.06124304914601229
158 1 10 7.43022614370482 1.656451272784009 0.2076355958158885
159 1 10 1.199948643493969 3.4464777606489525 0.3181556120463343
160 1 10 -4.070301080354669 2.432194351234592 0.18784872217247545
161 1 10 -1.8573933598791668 8.990625732827867 0.18502069522889403
162 1 10 8.831974328696619 -0.19430864150543578 0.19267886776281837
163 1 10 1.0479424300890385 -2.090960379895589 0.3205626152138889
164 1 10 -7.0714040494722985 -0.014887762626849588 0.3075419654794041
165 1 10 -8.585967615066721 -0.3450951515318551 0.08737664274000399
166 1 10 -2.889722616765171 -3.302712427390057 0.3003714871220124
167 1 10 -3.680854486215469 -5.259740518469664 0.18274090855341263
168 1 10 3.5303482810815354 5.250344321238424 0.05796737597593366
169 1 10 -3.5386694401230665 8.297231308895325 0.22903046444993977
170 1 10 -4.529206417218819 -6.5681566292600175 0.15247377361692915
171 1 10 2.611595149435181 -7.890355007729303 0.2385003016191427
172 1 10 -4.787343747478764 -5.11702263180486 0.20458321433101326
173 1 10 -8.295099032500433 -3.020390139738375 0.2998521362110696
174 1 10 9.330138608113684 -1.4103939782863026 0.15699852585913188
175 1 10 1.8431981384575977 2.2744750135321548 0.02535614965309555
176 1 10 -2.224446574790641 -3.792385669914713 0.20507056092154852
177 1 10 3.9772212823800186 -5.751387024353402 0.28278414928052603
178 1 10 -1.0170855492602144 8.699977561866849 0.11613192713334762
179 1 10 -6.4378116598916275 1.5759076345741998 0.19670267422702536
180 1 10 5.133961143248927 -0.932466091986456 0.33596234580366535
181 1 10 4.801618820446935 -2.036584367844314 0.049645678993429046
182 1 10 -0.37759571311304646 -0.49854777295215413 0.0086141243488636
183 1 10 9.089909077202256 0.08124804631714001 0.18983857294053014
184 1 10 -2.235062392809303 -5.4625785138013265 0.2892521309656292
185 1 10 -0.8407607914384164 -7.347942154737636 0.30256353058772356
186 1 10 0.5480649394081206 8.428752117439533 0.10769156099083836
187 1 10 -3.8925819120530196 6.956787888321053 0.02348920280731184
188 1 10 4.723674655345913 1.51885218975646 0.10687395360703736
189 1 10 -1.223487581120257 -9.502856007139716 0.13859679797300214
190 1 10 -3.9818217885418368 4.29142715085164 0.29054706720928414
191 1 10 -1.050950068111045 -2.0648411577916232 0.16237617650288244
192 1 10 5.412324326068677 6.725594291693562 0.33571866712628007
193 1 10 0.4088808651886805 0.522708574155651 0.1917206224887443
194 1 10 6.497882818157842 2.5119360130454003 0.0062774279498060085
195 1 10 7.778761047343681 0.8205869566993305 0.061398194328795466
196 1 10 3.3929486605375447 -8.777587603293524 0.04399321078459495
197 1 10 5.455281233900969 2.258246402122038 0.21693441359822022
198 1 10 7.518440818980055 -4.6416305712795145 0.23575349245804947
199 1 10 1.4816195894475812 -1.4838134590989231 0.1674289086668256
200 1 10 -6.7467575555284816 -4.722389114985858 0.0439606757864093
201 1 10 9.23557866377479 0.604490613089449 0.006276707423401254
202 1 10 -4.5640481921230265 -8.1106675455269 0.29909924428702483
203 1 10 -4.113511910959613 4.4912292119288635 0.22694605993609923
204 1 10 -6.726016984122265 -1.821436210536309 0.03841374706980951
205 1 10 3.739542458686887 5.560647573860581 0.062123529169289746
206 1 10 0.2974319882544694 1.4783591712330126 0.021017105841569895
207 1 10 6.685351905411748 -1.780156485919378 0.06276682994579355
208 1 10 2.563321776670152 3.207063663902639 0.31184036741238913
209 1 10 -0.3108881443224129 1.7798752273041494 0.314983643290113
210 1 10 5.254475232520034 0.36313919667611727 0.010524689144282024
211 1 10 2.21969582785849 -5.844077821874323 0.20041064970437197
212 1 10 -5.041763777840577 -2.54894594597303 0.02093286325004264
213 1 10 3.752781546129364 1.0106002209741922 0.0906061614421235
214 1 10 6.278325326542716 6.391154030190732 0.24830240199467976
215 1 10 -0.09540568236972201 -2.7638143675025666 0.18671924750900198
216 1 10 3.401369784863911 2.8431244182925197 0.026102907502125496
217 1 10 -1.2067856374048354 -0.013033656587586795 0.2993941602909041
218 1 10 3.9069210048855583 6.113585699322875 0.24303439905086358
219 1 10 -9.277993127616181 2.1323659097096708 0.12887757279700615
220 1 10 -8.918802803716131 2.5610522188490314 0.2484301692825855
221 1 10 -6.358780708854008 2.7286559251293796 0.26367874635513383
222 1 10 -1.3972267696466523 -4.016447467782919 0.29998307441701716
223 1 10 8.744222748886 2.9813036656826775 0.23780135457861679
224 1 10 -0.3045505319340386 3.1143496963082247 0.3167008200382484
225 1 10 4.834729251610668 -7.340210722416695 0.1556772126552889
226 1 10 -0.6997311759713799 4.561054655835707 0.10434499008925244
227 1 10 5.620545242987619 1.8299952104165225 0.28201479399924523
228 1 10 2.529852766185174 5.519691349641301 0.11828941105501872
229 1 10 -2.2731490229012716 2.77082235008948 0.1908680475789805
230 1 10 -0.8579595278459566 -3.8263246882185604 0.2426427133136419
231 1 10 2.9049048435167037 -1.219826443597845 0.31708735485946293
232 1 10 0.4123568195219897 4.849836176541936 0.21533650390893697
233 1 10 7.942604245779023 -5.150025764026921 0.13159028494752684
234 1 10 -1.6717573588753367 -2.095336098828562 0.20271157729664
235 1 10 4.600701118580488 7.9573237902050735 0.19211529273146188
236 1 10 8.029073208575625 -4.749090602665591 0.2812578020479286
237 1 10 -3.96140665747887 1.1580746827057542 0.029683840928122054
238 1 10 4.599155815723898 -8.252469833153123 0.29961248996204815
239 1 10 -1.4636888208550725 -2.1237390100448286 0.14840346366274157
240 1 10 -1.7312300891851249 -7.6120687947941 0.31481800368037555
241 1 10 -4.448558367112604 7.3883511219396745 0.3149720648280005
242 1 10 -8.079634322229678 -1.828371818232628 0.01335271389280137
243 1 10 -2.488472298392904 -0.5528348398306405 0.3352370786452463
244 1 10 6.752438940692877 4.721943247563433 0.2977310367838604
245 1 10 8.876657296399713 -0.03905775742334695 0.2473738442924981
246 1 10 5.805881328332141 -5.618466510187183 0.32270399465643995
247 1 10 6.040875397245925 -1.881410588131061 0.011176736885296676
248 1 10 1.4180070802895792 7.90736321207139 0.0061388614121823
249 1 10 1.6555060815684681 -6.329121028534732 0.09732495569193209
250 1 10 4.946562489071027 -3.7097583680881625 0.10016951541657043
251 1 10 4.988654009045355 -2.1541610075764837 0.28986298802868715
252 1 10 -0.7259432760842922 4.205435793517415 0.11388909093237481
253 1 10 -2.1179796638101203 9.113503260729484 0.07810686637406128
254 1 10 -2.4857576860064574 1.898059695157979 0.15241130592852242
255 1 10 -4.004149304503214 -3.2975435066074836 0.1573929148162881
256 1 10 -5.659648812052878 2.9602044225812474 0.16563153117497517
257 1 10 1.7826159660887757 -6.6062965970626815 0.15610894934486802
258 1 10 7.160886467232976 -1.8888725255641707 0.0025076152792671705
259 1 10 -5.722387789317633 6.423597718903688 0.17067096931035408
260 1 10 -0.10005294635715235 -3.5224533619250082 0.06987248227729313
261 1 10 0.4176786894528373 8.981176163151643 0.04196276592415477
262 1 10 1.2779023994440144 7.54783555064722 0.12518096779796153
263 1 10 3.6341635022833114 -8.61321680870929 0.20778783977029178
264 1 10 -5.080550878989315 -6.624293493683881 0.007935831894666111
265 1 10 7.765694287400348 2.304967758344654 0.2767243557660213
266 1 10 -2.4254788906500857 7.514424868533848 0.33219217389683287
267 1 10 -4.993355181197253 6.807551109454887 0.21950186522601864
268 1 10 -8.751310259314934 -3.365591004394808 0.14339158193144497
269 1 10 4.918716956437418 -7.5318940169776605 0.2694987473566133
270 1 10 8.83861534095603 -1.1809710391612405 0.3252066790377163
271 1 10 -3.1962634465059407 5.6583454594583245 0.05113567772967743
272 1 10 0.4670750979613496 -5.6260924403049675 0.2878083533776883
273 1 10 2.7367887452929396 6.215054674012588 0.19912269716090444
274 1 10 -5.807536849548503 6.897435499316855 0.224560576745027
275 1 10 -2.3572559100230603 -3.219811870444524 0.03386694177467374
276 1 10 -2.630551992255062 -0.3212539208882957 0.0036558918700577885
277 1 10 -5.336204019487324 6.928780528570141 0.28351843857852116
278 1 10 1.2638687225728529 -2.672396500024053 0.07766861062207338
279 1 10 -8.956499588608505 1.1632249050458114 0.011596672353162028
280 1 10 -3.8455266296833304 0.06907140125369353 0.133651144910542
281 1 10 1.2236461447720928 -2.256813533270891 0.12708724785509135
282 1 10 0.5519798435389413 -1.186983186549812 0.15863247561724486
283 1 10 6.014200179709498 1.9903617191169651 0.19982327920597998
284 1 10 2.842268474465804 -3.1486122490716917 0.07747020181560234
285 1 10 -6.780155071992623 3.8180094001176426 0.289590366711975
286 1 10 3.5401406281365446 7.099269453888147 0.20930404681874965
287 1 10 -0.8299479552643139 -5.416311393018357 0.2629282661717535
288 1 10 3.112053518246927 6.679251819278895 0.24459075779518516
289 1 10 4.400615790339046 -6.4790990922284415 0.11282197637241075
290 1 10 8.205140143621314 0.3296411324231675 0.10474320833286858
291 1 10 2.7300510018262645 4.005602372293911 0.1352650733268867
292 1 10 7.650248150295212 -3.4506664065596446 0.029071716986711536
293 1 10 -6.914157300993837 4.7408928594399695 0.3058822929988243
294 1 10 -8.731515588296404 0.5250049167313865 0.24204093729188775
295 1 10 5.0216571951632 2.2657272215824884 0.036625395198892824
296 1 10 -5.7073974330886275 7.035272858546942 0.27595039493114704
297 1 10 -7.700231201678376 -1.4298857645587975 0.2745475441306405
298 1 10 7.788018634692384 -3.1581792162112663 0.026706392113461198
299 1 10 -7.480672013394101 0.2106178435243142 0.2897083309474923
300 1 10 -0.7564495200286779 -0.41601142105079947 0.033623486125196965
301 1 10 -3.2635913050011043 -7.545156221812432 0.7862761836870296
302 1 10 -6.091760862916395 3.364954371896475 0.4951114741018283
303 1 10 -5.663244899653862 7.666120845050074 1.0032733454860236
304 1 10 -0.42838151253039897 -5.144039650374819 0.8935163146691976
305 1 10 -1.5823761098015132 -0.2930228939627708 0.5484109776620183
306 1 10 -7.065668920305877 -1.0387695668159687 0.988546098402326
307 1 10 2.861134862287623 -8.856369803334978 0.6679685789171625
308 1 10 1.2323566809832598 6.514395923277026 0.9179782835491559
309 1 10 4.639566507030794 -6.240486413558147 0.615653294664047
310 1 10 -2.6100301405658377 7.912137797986036 0.7530276278849142
311 1 10 3.75856359571903 -1.527631704708798 0.4939865605320836
312 1 10 1.3512603378284311 -0.7220574086829769 0.6570302932897045
313 1 10 1.0233919602041583 -0.6430793470658975 0.8432952990177895
314 1 10 -3.9674642679561583 7.589655969277275 0.45919521527629625
315 1 10 -7.916032758389973 -3.54932324967131 0.7799736947885443
316 1 10 -6.947651694320658 3.0290070849516777 0.444430318244931
317 1 10 -5.5601840706139285 0.19204822079218511 0.6344373866685599
318 1 10 -1.5317170617743994 -7.301444436261833 0.8232116353934862
319 1 10 -5.342416692272236 -4.84433675664196 0.6619678771756724
320 1 10 -3.369050103913036 8.823678515845828 0.43740547551721054
321 1 10 -1.4576908980622676 5.970038412047289 0.39079163827579355
322 1 10 9.033476791899405 1.7534880055556539 0.8352743346596743
323 1 10 0.11814565400527731 9.26377573751763 0.7763733425432457
324 1 10 1.8588508928654235 -5.42557777483829 0.42562779317647814
325 1 10 -5.400446356040251 2.4131677061646344 0.35430786199130776
326 1 10 -4.704977806384695 4.172700336419262 0.8440756207058036
327 1 10 0.1107425761962692 -2.511514189713313 0.7937338119929476
328 1 10 2.0144042270798495 8.257899524775189 0.6129783494763259
329 1 10 -7.5359879589909555 3.052871417233482 0.43153814526997913
330 1 10 6.729682544350208 5.87789765376616 0.39551521166342485
331 1 10 0.29186477184567583 -4.730646486510116 0.9908468080934196
332 1 10 -0.5851716045147397 8.650471659916755 0.9850522193581839
333 1 10 -3.6356171455144506 -2.285651756527751 0.7228286567267752
334 1 10 -5.885063022561121 1.9060914534091997 0.9032051997470116
335 1 10 -1.1653443395410976 -9.064540208977972 1.007239576074264
336 1 10 1.6949546195856775 1.115579500972959 0.6503866406348241
337 1 10 -1.5538721813524772 -4.3845130267908985 0.5644139574387588
338 1 10 0.35129311603662017 -8.317481105443697 0.5411076154432163
339 1 10 -7.364884629827825 1.2954874988100713 0.5717920269912373
340 1 10 -4.461636088089283 -3.0998537732044293 0.38778207243323326
341 1 10 4.6572717526532195 3.6199443907773223 0.8384452689526887
342 1 10 -6.164593535115877 -2.476791904714764 0.7759920868005794
343 1 10 -5.472869694802122 2.375567054696579 0.9049600324813096
344 1 10 -4.982779177046488 -6.421633964928417 0.38014917743862897
345 1 10 4.307503412366302 -4.470444680319874 0.601780147350728
346 1 10 7.715871487243879 -3.7583666897911723 0.6460622019456306
347 1 10 0.2026807375518918 9.288796337817896 0.804547402652037
348 1 10 1.014011134923801 2.1914113499548633 0.5610134802457505
349 1 10 -8.732554695127297 0.04153748205613283 0.8808288478950377
350 1 10 -1.6488235154648792 -4.354219903022187 0.583802395174339
351 1 10 5.561304917183753 -2.958599875201859 0.974708925160841
352 1 10 -4.719503068392813 -4.999744366395923 0.7684071725733763
353 1 10 0.29180027090679717 2.4320078726429624 0.8960021163260976
354 1 10 -2.8937270064961718 -3.320774999296009 1.0014070699415312
355 1 10 -0.4223257022682252 2.5247064657442837 0.3605354748247153
356 1 10 -0.7295237627125134 -2.2034168572671735 0.8472876012992567
357 1 10 -6.845623556266803 -4.385893581994906 0.9167592835983234
358 1 10 -2.3627546965246276 5.567431280288498 0.7794709407652527
359 1 10 -0.5201144777002676 0.20668144059210955 0.646115407659116
360 1 10 -7.07769338879575 -0.05543994933398079 0.7370321553673234
361 1 10 -0.9504973376312926 -6.487765407773506 0.8321078899221861
362 1 10 4.291290468866998 -7.9023492283763295 0.40821094781634326
363 1 10 -0.7553736329318839 2.415096016056596 0.7840074628148319
364 1 10 1.6870636661977376 -7.48157941918458 0.4786156089888015
365 1 10 -5.3405010335625756 3.0741616093400217 0.7187609289995139
366 1 10 2.398403486309542 -4.702875484065956 0.5452772769174882
367 1 10 -7.688347069401414 -3.4066806457996024 0.4539652930433183
368 1 10 4.959865243882056 -4.078400956186047 0.44215328556973355
369 1 10 -1.2238927344166994 8.16889818591778 0.71612880958106
370 1 10 4.497598392304783 4.789618674209305 0.5384978302786995
371 1 10 -4.366553066154021 6.750452352603472 0.9028145019771685
372 1 10 2.4892784410709647 4.594998592084289 0.9644129568408295
373 1 10 -8.479513391852095 -3.1369079407538116 0.8909436357387248
374 1 10 6.804428640306994 -0.30528349026113255 0.9567908701400829
375 1 10 -4.892419716741705 -3.362775950378395 0.8637743177363109
376 1 10 -8.809127896257673 3.0534827732155567 0.825073418522652
377 1 10 2.0899122959146577 5.381191091512645 0.48134577561731495
378 1 10 3.289996421188326 1.3223307256761192 0.8447031803748566
379 1 10 1.9652665160489784 9.11097580371609 0.972552906660431
380 1 10 -0.1491334936599387 9.490883615803762 0.7414220340074935
381 1 10 7.879504683963184 5.410130833777644 0.7337073694039704
382 1 10 -4.0536146472466354 6.441078079770053 0.6196011726031665
383 1 10 -0.8441936692175616 1.8138027423772425 0.8307683103790064
384 1 10 -5.106936923467551 -6.801428210898978 0.9860228229935919
385 1 10 -7.526734490921961 4.0331172626586165 0.68771427807661
386 1 10 -8.720389328478355 2.022094209856405 0.6232484152646752
387 1 10 2.7074489130677466 4.381171409584411 0.5875633396167153
388 1 10 0.4592177602567925 4.752399641326197 0.884047528125744
389 1 10 -2.900279447623756 -7.315313524964309 0.48656954303502115
390 1 10 4.649061466895604 -3.3450324430913296 0.7509171016683056
391 1 10 -1.3464532397238973 -6.932215064992866 0.5414190767037478
392 1 10 1.2454765486893307 -7.4264088040167735 0.5946909556058151
393 1 10 1.103779357703347 7.663037074496131 0.8009415209928381
394 1 10 -6.470442239469944 1.169433429392161 0.7703912262331173
395 1 10 -4.08087475500249 -3.363080498501063 0.4877198425608688
396 1 10 2.639860971607313 -7.419638928906639 0.8650704496340538
397 1 10 8.0337878197345 4.539361995907974 0.394048247580211
398 1 10 1.9859992647007285 2.5850024391045903 0.6102733249310273
399 1 10 8.632725375863638 2.118634659794591 0.9249296609223883
400 1 10 5.088483683113738 -1.8452227204769207 0.47886691427030537
401 1 10 4.399895488780327 -4.840072204819654 0.8238409405165485
402 1 10 -5.718837201931649 -5.355287256641326 0.5682902709738187
403 1 10 0.6444664214264659 3.198336723664813 0.7105353887013871
404 1 10 5.620114681802398 -2.4668593176560245 0.6192557683913693
405 1 10 -3.837412482216391 4.910097702648702 0.4948949714354297
406 1 10 -0.3550902134148907 -1.18778532256978 0.6791803262872226
407 1 10 -8.512661702182838 3.245438483495825 0.3736214322642132
408 1 10 4.554933253330956 -2.0327067201359172 0.5618723225902962
409 1 10 -5.640996213461301 1.6994168501771862 0.6905992544889735
410 1 10 -3.209081644330895 -6.7002451884070044 0.9097178557114145
411 1 10 -5.902972230069181 -4.847954541025085 0.5535770400557657
412 1 10 3.562942701099931 -5.974650839772301 0.8188005586576701
413 1 10 -4.392814672326594 -5.087232746956778 1.0030648135419429
414 1 10 5.052121489700576 -3.465555798888701 0.8446414750941267
415 1 10 -0.2604469798100377 1.1515505851982328 0.8878337024623564
416 1 10 1.1712688113711085 -1.9490151662815283 0.6825649463285749
417 1 10 -0.44273510237357766 -8.454309206022998 0.38148198078023826
418 1 10 1.641923934687115 1.446049413037317 0.9162581127008771
419 1 10 -1.78382985978654 4.445497142155166 0.5165976317588543
420 1 10 1.3301713436381635 1.982129141330176 0.5147774799290907
421 1 10 -3.4656823575271645 -8.30693960353266 0.4759708730523533
422 1 10 -1.271103432475401 6.412582141358621 0.5496302106369331
423 1 10 -7.263946821433262 6.025935018508798 0.9953508106947864
424 1 10 2.0576118109306147 4.971115818700738 0.7536487625997028
425 1 10 -4.652634347923273 -0.9789835368881923 0.9392811761047906
426 1 10 2.302030108739993 -1.2736537034783402 0.3982115495865376
427 1 10 -6.982886753725167 -5.005399797461229 0.5328810003970372
428 1 10 0.6171016496504103 -8.812591072945782 0.7651532308363274
429 1 10 6.826401608067617 0.08038234705024506 0.8936440786647055
430 1 10 7.9515265840589375 -3.2971121756841333 0.866758682874472
431 1 10 2.3820917803722623 -8.25571892606123 0.6887524824772446
432 1 10 6.7247958066370215 -6.207355492742422 0.8176702546771086
433 1 10 -3.52710726159919 -5.147257688497231 0.47388910893833625
434 1 10 -3.8304320021698173 -1.1528192380625146 0.7847847658198188
435 1 10 8.889724260522858 2.3637768794032956 0.6290076640950633
436 1 10 4.902272465358426 5.748102655541805 0.7727963233997412
437 1 10 2.5521395008233907 6.234226225670719 0.8593890677729352
438 1 10 6.485929265624781 -2.8098589468484065 0.49529272961830384
439 1 10 -7.458393267728722 -4.273434641808995 0.9904143666361678
440 1 10 -6.329355770049566 -0.4926768092891769 0.8932605851255686
441 1 10 -1.385296721573624 7.054657968697746 0.7419421748043155
442 1 10 7.6359628985092804 -4.829219577115405 0.6067895554861538
443 1 10 5.249983189478854 -4.725027209036389 0.859813090110092
444 1 10 -6.32367585928614 1.040266113733939 0.7226362705146965
445 1 10 2.9172498505499176 3.072047802905423 0.8592269917991135
446 1 10 -5.284164679872356 -4.623202044429076 0.41714647799681237
447 1 10 5.312726009075859 7.1140455863394605 0.6230475907299633
448 1 10 1.8619554489138592 0.5347502980286608 0.7799130325039183
449 1 10 -4.2722303893102715 5.445210111667545 0.5978024593938945
450 1 10 5.6765171687133344 -5.143430701259092 0.756985563698843
451 1 10 2.589920987081718 -5.456817475791685 0.7412776166310551