units real
dimension 3
boundary p p p
neighbor 0.3 bin
neigh_modify every 1 check yes

atom_style full
bond_style harmonic
angle_style cosine/squared
special_bonds lj/coul 0 1 1


region     box      block 0 210 0 210 0 210
create_box 4 box bond/types 1 angle/types 1 	extra/special/per/atom 3 	extra/bond/per/atom 2 	extra/angle/per/atom 2
Created orthogonal box = (0 0 0) to (210 210 210)
  2 by 2 by 3 MPI processor grid


molecule 1 sds.txt
Read molecule template 1:
# SDS
  1 molecules
  0 fragments
  4 atoms with max type 2
  3 bonds with max type 1
  2 angles with max type 1
  0 dihedrals with max type 0
  0 impropers with max type 0
# 1 - Qa (SDS-H)
# 2 - C1
# 3 - Qd (Na)
# 4 - W

create_atoms     0 random 1000 1234345 box mol 1 1234563
Created 4000 atoms
  using lattice units in orthogonal box = (0 0 0) to (210 210 210)
  create_atoms CPU = 0.006 seconds
create_atoms     3 random 1000 12334 box
Created 1000 atoms
  using lattice units in orthogonal box = (0 0 0) to (210 210 210)
  create_atoms CPU = 0.000 seconds
create_atoms     4 random 75000 12333 box
Created 75000 atoms
  using lattice units in orthogonal box = (0 0 0) to (210 210 210)
  create_atoms CPU = 0.003 seconds


mass 1 96
mass 2 56
mass 3 23
mass 4 72

pair_style hybrid/overlay lj/gromacs 9 12 coul/long 12

kspace_style pppm 1.0e-5
kspace_modify order 4

dielectric 80

set type 1 charge  -1
Setting atom values ...
  1000 settings made for charge
set type 3 charge  1
Setting atom values ...
  1000 settings made for charge
pair_coeff 1*3 1*3 coul/long

# In kcal/mol and Angstrom
pair_coeff 1 1 lj/gromacs  1.19 4.7
pair_coeff 1 2 lj/gromacs  0.48 6.2
pair_coeff 1 3 lj/gromacs  1.33 4.7
pair_coeff 1 4 lj/gromacs  1.33 4.7
pair_coeff 2 2 lj/gromacs  0.84 4.7
pair_coeff 2 3 lj/gromacs  0.48 6.2
pair_coeff 2 4 lj/gromacs  0.48 4.7
pair_coeff 3 3 lj/gromacs  1.19 4.7
pair_coeff 3 4 lj/gromacs  1.33 4.7
pair_coeff 4 4 lj/gromacs  1.19 4.7

bond_coeff 1 2.98 4.7
angle_coeff 1 5.97 180

write_data initial.data
System init for write_data ...
PPPM initialization ...
  using 12-bit tables for long-range coulomb (src/kspace.cpp:342)
  G vector (1/distance) = 0.088494159
  grid = 15 15 15
  stencil order = 4
  estimated absolute RMS force accuracy = 0.0025512459
  estimated relative force accuracy = 7.6830012e-06
  using double precision KISS FFT
  3d grid and FFT values/proc = 1440 450
Generated 0 of 6 mixed pair_coeff terms from geometric mixing rule
Neighbor list info ...
  update: every = 1 steps, delay = 0 steps, check = yes
  max neighbors/atom: 2000, page size: 100000
  master list distance cutoff = 12.3
  ghost atom cutoff = 12.3
  binsize = 6.15, bins = 35 35 35
  2 neighbor lists, perpetual/occasional/extra = 2 0 0
  (1) pair lj/gromacs, perpetual
      attributes: half, newton on
      pair build: half/bin/newton
      stencil: half/bin/3d
      bin: standard
  (2) pair coul/long, perpetual, skip from (1)
      attributes: half, newton on
      pair build: skip
      stencil: none
      bin: none
dump        mydump  all atom 5000 sds.lammpstrj

velocity all create 400 600 dist gaussian
velocity all zero linear

min_style cg
minimize 0 0 10000 100000
PPPM initialization ...
  using 12-bit tables for long-range coulomb (src/kspace.cpp:342)
  G vector (1/distance) = 0.088494159
  grid = 15 15 15
  stencil order = 4
  estimated absolute RMS force accuracy = 0.0025512459
  estimated relative force accuracy = 7.6830012e-06
  using double precision KISS FFT
  3d grid and FFT values/proc = 1440 450
Generated 0 of 6 mixed pair_coeff terms from geometric mixing rule
Per MPI rank memory allocation (min/avg/max) = 10.74 | 10.75 | 10.77 Mbytes
   Step          Temp          E_pair         E_mol          TotEng         Press     
         0   400            2.0330012e+21  1038.2435      2.0330012e+21  6.0209339e+19
      9540   400           -586624.86      659.09919     -490581.03     -364.49914    
Loop time of 246.943 on 12 procs for 9540 steps with 80000 atoms

99.9% CPU use with 12 MPI tasks x 1 OpenMP threads

Minimization stats:
  Stopping criterion = linesearch alpha is zero
  Energy initial, next-to-last, final = 
    2.03300123730078e+21  -585965.759908016  -585965.759908016
  Force two-norm initial, final = 1.9180555e+23 1.5821168
  Force max component initial, final = 5.9428885e+22 0.22983763
  Final line search alpha, max atom move = 2.7979724e-09 6.4307934e-10
  Iterations, force evaluations = 9540 13436

MPI task timing breakdown:
Section |  min time  |  avg time  |  max time  |%varavg| %total
---------------------------------------------------------------
Pair    | 91.244     | 101.83     | 122.69     | 107.9 | 41.24
Bond    | 0.27205    | 0.31354    | 0.42327    |   7.2 |  0.13
Kspace  | 34.288     | 55.508     | 66.27      | 148.5 | 22.48
Neigh   | 55.585     | 56.116     | 56.589     |   5.1 | 22.72
Comm    | 17.029     | 17.657     | 18.374     |  12.1 |  7.15
Output  | 0.0092923  | 0.010083   | 0.010833   |   0.5 |  0.00
Modify  | 0          | 0          | 0          |   0.0 |  0.00
Other   |            | 15.51      |            |       |  6.28

Nlocal:        6666.67 ave        7217 max        5675 min
Histogram: 2 0 1 0 0 1 2 1 2 3
Nghost:        7192.42 ave        7571 max        6850 min
Histogram: 2 1 1 2 1 0 1 1 2 1
Neighs:         222964 ave      248191 max      179378 min
Histogram: 1 1 0 1 0 1 2 1 2 3

Total # of neighbors = 2675570
Ave neighs/atom = 33.444625
Ave special neighs/atom = 0.15
Neighbor list builds = 4334
Dangerous builds = 45
write_data initial.data
System init for write_data ...
PPPM initialization ...
  using 12-bit tables for long-range coulomb (src/kspace.cpp:342)
  G vector (1/distance) = 0.088494159
  grid = 15 15 15
  stencil order = 4
  estimated absolute RMS force accuracy = 0.0025512459
  estimated relative force accuracy = 7.6830012e-06
  using double precision KISS FFT
  3d grid and FFT values/proc = 1440 450
Generated 0 of 6 mixed pair_coeff terms from geometric mixing rule

thermo              100

timestep 20

fix mom all momentum 1000 linear 1 1 1

fix fxnpt all npt temp 400.0 400.0 $(100*dt) tchain 1 iso 1 1 $(1000*dt) drag 1 mtk yes
fix fxnpt all npt temp 400.0 400.0 2000 tchain 1 iso 1 1 $(1000*dt) drag 1 mtk yes
fix fxnpt all npt temp 400.0 400.0 2000 tchain 1 iso 1 1 20000 drag 1 mtk yes
run 200000
PPPM initialization ...
  using 12-bit tables for long-range coulomb (src/kspace.cpp:342)
  G vector (1/distance) = 0.088494159
  grid = 15 15 15
  stencil order = 4
  estimated absolute RMS force accuracy = 0.0025512459
  estimated relative force accuracy = 7.6830012e-06
  using double precision KISS FFT
  3d grid and FFT values/proc = 1440 450
Generated 0 of 6 mixed pair_coeff terms from geometric mixing rule
Per MPI rank memory allocation (min/avg/max) = 10.89 | 10.91 | 10.93 Mbytes
   Step          Temp          E_pair         E_mol          TotEng         Press          Volume    
      9540   400           -586624.86      659.09919     -490581.03     -364.49914      9261000      
      9600   207.09985     -536373.3       1419.268      -485568.63      611.40875      9344964.8    
      9700   238.15222     -523117.86      1475.5222     -464852.13      262.24334      9462436.7    
      9800   273.21699     -508083.71      1596.6597     -441335.23      264.78613      9541252.4    
      9900   306.32806     -494835.08      1719.2143     -420068.32      305.6591       9621216.3    
     10000   331.11216     -483407.91      1847.0591     -402603.24      316.11238      9711283      
     10100   346.28856     -473199.8       1912.0507     -388711.15      300.23156      9803096.6    
     10200   357.93593     -464920.7       1950.7463     -377615.9       262.13013      9891150.1    
     10300   365.95907     -457988.86      1993.9966     -368727.59      254.51504      9974796.7    
     10400   374.74197     -453088.19      2082.5568     -361643.98      211.62668      10056848     
     10500   379.37565     -448586.36      2077.2365     -356042.52      196.1899       10134929     
     10600   382.65485     -444796.98      2071.1525     -351477.25      174.99903      10209259     
     10700   386.03746     -441755.48      2077.2364     -347623.04      141.0234       10279831     
     10800   387.05863     -438625.24      2010.5195     -344316.01      121.97963      10343240     
     10900   389.15865     -436372.22      2117.8478     -341454.9       84.098824      10400477     
     11000   390.76362     -434203.83      2111.6529     -338909.97      73.169109      10449830     
     11100   391.08315     -432083.21      2104.6274     -336720.18      60.799397      10496597     
     11200   391.81425     -430295.25      2156.5674     -334705.94      48.116787      10538957     
     11300   393.37252     -428839.17      2099.7702     -332935.07      35.93593       10574430     
     11400   394.08488     -427457.45      2051.2028     -331432.05      28.707907      10605372     
     11500   395.32487     -426452         2101.6349     -330080.47      11.289167      10631713     
     11600   395.1922      -425261.11      2067.8253     -328955.03      30.384249      10650696     
     11700   397.68133     -424967.06      2075.1422     -328060.1       1.5244031      10668425     
     11800   398.95387     -424491.68      2036.3334     -327320.08     -3.3598714      10683590     
     11900   397.98129     -423705.23      2067.2716     -326734.62      2.2938597      10695152     
     12000   399.05507     -423549.52      2131.5958     -326258.52     -0.54925642     10705500     
     12100   398.79203     -423151.79      2202.9782     -325852.14     -2.54973        10713345     
     12200   400.0347      -423081.38      2124.7556     -325563.62      2.9041614      10718196     
     12300   398.10058     -422300.06      2002.3145     -325365.95      1.379922       10723075     
     12400   399.73093     -422569.72      2071.1652     -325177.99      8.1063229      10722417     
     12500   399.79127     -422488.49      2073.6287     -325079.9       5.5041709      10719974     
     12600   400.37131     -422653.18      2121.7977     -325058.11     -0.10761948     10720142     
     12700   399.5383      -422351.2       2027.9102     -325048.66      12.041357      10723073     
     12800   400.67703     -422689.21      2085.4918     -325057.54     -7.9675487      10727611     
     12900   400.10405     -422524.08      2086.7472     -325027.79     -9.0422601      10728475     
     13000   400.46637     -422623.29      2110.5092     -325016.84      2.1664024      10726755     
     13100   399.97599     -422633.53      2194.1975     -325060.33      2.9976555      10725172     
     13200   398.96258     -422320.05      2103.8988     -325078.81      11.161636      10726012     
     13300   401.23129     -422857.6       2097.3763     -325081.88     -6.8196877      10727668     
     13400   399.07136     -422349.11      2121.0406     -325064.78     -0.97094007     10728928     
     13500   399.79472     -422548.57      2159.2188     -325053.58     -0.31076342     10727019     
     13600   400.42491     -422681.91      2116.8358     -325079.03      6.989733       10726130     
     13700   400.43862     -422791.18      2133.4987     -325168.36     -14.29607       10727359     
     13800   400.72421     -422796.1       2074.5746     -325164.1       2.8059257      10726999     
     13900   398.60623     -422314.19      2146.998      -325114.82      3.914255       10728653     
     14000   400.6486      -422702.45      2095.1504     -325067.91     -5.6115887      10729312     
     14100   399.32545     -422494.14      2183.6578     -325086.61     -0.65572566     10728314     
     14200   400.69017     -422781.67      2079.4855     -325152.87      0.0032817736   10724864     
     14300   401.55905     -423131.09      2117.941      -325256.64      2.710651       10723878     
     14400   399.35558     -422709.63      2053.8791     -325424.69      8.082286       10725179     
     14500   400.60935     -423069.02      2056.982      -325482        -7.7691411      10725145     
     14600   401.03789     -423119.63      2009.3819     -325478.02     -9.3625654      10723520     
     14700   400.70311     -423235.7       2166.2934     -325517.01     -16.145967      10722478     
     14800   400.16285     -423009.95      2062.9973     -325523.4       5.0053658      10718884     
     14900   400.52873     -423197.71      2115.2866     -325571.61      3.3543965      10720316     
     15000   400.00655     -423095.1       2094.0573     -325614.75      0.074175591    10724333     
     15100   399.61957     -422960.66      2036.1269     -325630.52     -6.1831296      10726147     
     15200   399.89252     -422959.1       2067.0879     -325532.91     -6.0568325      10724256     
     15300   399.15416     -422818.53      2090.0615     -325545.44      7.2807873      10720927     
     15400   398.76108     -422767.52      2071.9023     -325606.32      20.064535      10720787     
     15500   400.70568     -423348.24      2116.1342     -325679.09     -7.4005647      10724750     
     15600   400.14277     -423216.33      2114.837      -325682.71     -8.3770347      10728508     
     15700   398.77912     -422821.17      2078.2197     -325649.36     -3.351854       10728750     
     15800   401.75079     -423517.48      2111.9598     -325603.29     -5.4803096      10722969     
     15900   402.32413     -423750.62      2099.3838     -325712.29     -4.0335349      10717629     
     16000   398.59264     -423047.83      2144.5612     -325854.14      13.954863      10716123     
     16100   399.9192      -423344.96      2071.0432     -325908.45      8.5028864      10719895     
     16200   399.29109     -423295.2       2087.1494     -325992.37      1.2597057      10725471     
     16300   399.33008     -423292.7       2099.6534     -325968.07     -11.443095      10728330     
     16400   400.53826     -423498.36      2096.1473     -325889.13      0.067432219    10725776     
     16500   399.8855      -423307.21      2044.4689     -325905.32      7.6753045      10724727     
     16600   400.78701     -423565.59      2046.696      -325946.5      -6.8880783      10728308     
     16700   399.47075     -423251.99      2091.4677     -325902        -9.0632083      10732140     
     16800   399.85709     -423180.4       2055.3687     -325774.38      0.41996189     10729731     
     16900   400.79151     -423340.49      2041.8672     -325725.15     -3.9066769      10727681     
     17000   399.72482     -423203.09      2128.3837     -325755.6       4.1623511      10727167     
     17100   401.45805     -423647.33      2081.4224     -325833.48     -3.5249263      10724496     
     17200   401.39205     -423750.91      2097.109      -325937.12     -7.0217883      10721512     
     17300   398.98868     -423314.45      2146.1093     -326024.78      16.860035      10720353     
     17400   399.80881     -423514.69      2056.9332     -326118.62      5.2832695      10723466     
     17500   399.43241     -423405.43      2034.284      -326121.77      3.4370351      10726038     
     17600   398.58572     -423208.79      2084.112      -326077.2       7.9509851      10726383     
     17700   399.51706     -423414.17      2096.3418     -326048.26      0.23398385     10726432     
     17800   398.89745     -423328.66      2190.0621     -326016.79      2.2432412      10725017     
     17900   401.1151      -423697.53      2079.2258     -325967.67     -0.41270792     10723132     
     18000   400.85558     -423750.6       2065.6355     -326096.21      5.3211354      10720705     
     18100   400.66688     -423816.16      2049.2839     -326223.12     -4.0580361      10719827     
     18200   398.37348     -423368.51      2084.7367     -326286.91      15.221931      10720582     
     18300   401.13336     -423989.59      2024.7506     -326309.84      4.7507451      10721199     
     18400   399.22315     -423666.66      2119.4306     -326347.75     -0.031941627    10722656     
     18500   400.38204     -423925.24      2081.4016     -326368        -9.0101063      10722173     
     18600   399.62492     -423709.86      2010.5081     -326404.07      5.2958876      10721612     
     18700   400.72523     -424054.92      2098.8406     -326398.41     -11.230902      10719682     
     18800   400.76896     -423946.61      2005.3736     -326373.14      2.3909984      10717072     
     18900   399.36785     -423620.79      1993.0094     -326393.79      9.6664853      10718788     
     19000   399.34079     -423680.62      2084.5111     -326368.57      5.2224063      10721423     
     19100   401.27338     -424039.96      2008.9004     -326342.67     -7.0289304      10723450     
     19200   400.93186     -424145.96      2198.0523     -326340.96     -14.810779      10723196     
     19300   399.73548     -423872.78      2154.2003     -326396.93      8.4525495      10720759     
     19400   401.59566     -424363.28      2118.6691     -326479.38     -12.719445      10720773     
     19500   400.06683     -424041.72      2107.4835     -326533.57     -15.709496      10720600     
     19600   400.76553     -424165.11      2041.0354     -326556.79     -1.9534412      10717051     
     19700   400.13918     -424101.14      2063.9306     -326619.3       13.114448      10714855     
     19800   401.02974     -424455.05      2150.2454     -326674.52     -13.308879      10716940     
     19900   401.14789     -424320.66      2038.9754     -326623.23     -9.8858915      10718937     
     20000   400.38849     -424158.41      2044.8416     -326636.2      -2.7893791      10719595     
     20100   399.10686     -423862.62      2063.9779     -326626.89      4.5679795      10719088     
     20200   399.13922     -423866.91      2098.8163     -326588.63     -1.2557595      10718212     
     20300   400.97011     -424382.05      2159.6152     -326606.37      7.6676711      10714233     
     20400   400.61122     -424269.17      2096.499      -326642.19      7.2929092      10715387     
     20500   399.64625     -424155.47      2087.9407     -326767.16      1.4531076      10719922     
     20600   398.92594     -424046.59      2139.5598     -326778.42      3.2478643      10722437     
     20700   399.80367     -424102.58      2042.8694     -326721.8       3.7974059      10722711     
     20800   400.31861     -424117.96      1999.5594     -326657.7      -1.3917273      10721100     
     20900   398.94942     -423837.79      2075.712      -326627.88      9.4726711      10718941     
     21000   399.52146     -424030.38      2088.9553     -326670.8       10.750131      10717650     
     21100   400.78276     -424371.23      2077.1522     -326722.69     -5.7573619      10718248     
     21200   399.81266     -424197.12      2070.8552     -326786.21     -1.6792785      10717879     
     21300   400.45244     -424466.16      2140.7733     -326832.77     -3.1999314      10716451     
     21400   401.0254      -424608.75      2143.8596     -326835.64     -2.8882788      10717759     
     21500   401.46104     -424737.89      2118.0775     -326886.68     -9.2795844      10720330     
     21600   400.13193     -424429.97      2142.5775     -326871.2      -20.946501      10722546     
     21700   399.37117     -424113.78      2074.7857     -326804.22      14.631726      10719464     
     21800   400.02584     -424295.97      2078.521      -326826.56      4.1567334      10719107     
     21900   400.2983      -424372.81      2096.3871     -326820.56     -5.7297282      10720321     
     22000   400.79299     -424459.28      2119.2807     -326766.18     -2.2923023      10720187     
     22100   398.80505     -423946.25      2099.6687     -326746.8       8.2329456      10721289     
     22200   400.35997     -424287.6       2060.0464     -326756.99     -0.36813888     10722729     
     22300   399.34173     -424008.49      2025.9288     -326754.8       5.9790394      10722733     
     22400   399.27964     -424033.88      2049.2676     -326771.66      11.14709       10720544     
     22500   400.33951     -424381.86      2140.118      -326776.05      3.5248287      10718265     
     22600   399.55029     -424218.16      2099.6593     -326841.01      7.4036313      10718184     
     22700   400.67267     -424523.63      2076.8045     -326901.69     -14.949958      10720888     
     22800   399.74776     -424303.52      2091.1568     -326887.78     -3.998417       10720229     
     22900   400.79295     -424499.41      2075.6797     -326849.91     -5.1122684      10718841     
     23000   399.93523     -424292.9       2123.2933     -326800.32      2.6109592      10719358     
     23100   399.67281     -424157.5       2028.9371     -326821.85      5.784709       10721193     
     23200   400.86673     -424531.67      2092.8359     -326847.42     -14.699483      10722872     
     23300   399.74087     -424253.17      2062.47       -326867.76     -1.706837       10720494     
     23400   400.0055      -424376.64      2088.515      -326902.08      9.8483576      10715544     
     23500   400.65489     -424573.3       2019.5424     -327012.87      4.0402324      10713815     
     23600   399.44899     -424464.72      2113.5061     -327097.88     -6.598668       10714843     
     23700   401.31211     -424916.01      2090.3558     -327128.03     -5.7650131      10713544     
     23800   400.98836     -424930.33      2097.2947     -327212.62      5.1763867      10712392     
     23900   401.38858     -425094.45      2080.2996     -327298.29     -11.439967      10715687     
     24000   399.17627     -424620.13      2112.1238     -327319.7      -1.7591476      10716368     
     24100   400.57488     -424774.02      2009.2047     -327243         7.2761784      10714601     
     24200   399.48078     -424679.43      2174.4279     -327244.09      1.3998336      10717253     
     24300   399.9149      -424630.65      2077.9536     -327188.26     -6.9610559      10722291     
     24400   399.59203     -424422.46      2031.6766     -327103.34      3.9145378      10723595     
     24500   399.89093     -424482.95      2064.9257     -327059.3      -2.4946986      10719942     
     24600   401.93172     -424916.72      2005.8314     -327065.52      2.7766941      10715340     
     24700   401.01997     -424922         2103.4843     -327190.56     -5.1882971      10713318     
     24800   400.45434     -424883.66      2065.95       -327324.64      11.167506      10713235     
     24900   400.92062     -425137.94      2071.2613     -327462.42     -9.2953782      10715723     
     25000   397.91812     -424555.86      2147.508      -327520.08      6.1002075      10717633     
     25100   399.89237     -424863.53      2083.2858     -327421.18     -0.99802244     10716073     
     25200   399.97432     -424826.67      2071.1713     -327376.89      6.4331899      10712571     
     25300   400.60733     -424925.28      2073.7803     -327321.94     -11.244085      10712805     
     25400   400.95695     -425005.86      2042.2419     -327350.69     -3.3651643      10710622     
     25500   399.66211     -424774.61      2060.53       -327409.92      15.488406      10708326     
     25600   400.28084     -424941.56      2023.0369     -327466.82      4.0671454      10710444     
     25700   399.64602     -424867.44      2053.6141     -327513.51     -3.4552629      10714925     
     25800   400.48864     -424976.79      2014.8666     -327460.67      1.2227854      10716776     
     25900   399.96815     -424821.78      2058.7893     -327385.86     -2.4506686      10716700     
     26000   401.15056     -425088.9       2050.8445     -327378.97     -7.0033584      10715978     
     26100   400.57281     -424948.97      2060.7827     -327366.87      0.24738593     10714477     
     26200   398.72775     -424559.67      2074.5478     -327403.78      8.5387037      10713664     
     26300   400.40259     -424938.21      2076.3147     -327381.16      2.1994041      10711723     
     26400   400.13383     -424955.95      2117.7282     -327421.58      11.743573      10709490     
     26500   400.04806     -424988.92      2091.1463     -327501.58     -3.2021537      10711376     
     26600   400.19889     -425023.82      2097.1311     -327494.53      8.7934575      10712747     
     26700   400.51129     -425035.43      2036.6332     -327492.14     -5.0444048      10716556     
     26800   400.05723     -424938.29      2061.9129     -327478        -7.6617397      10718520     
     26900   399.96838     -424899.12      2073.829      -327448.1      -3.6552599      10716288     
     27000   400.30406     -425008.22      2094.4332     -327456.55     -0.61775843     10711769     
     27100   400.88309     -425141.15      2034.9156     -327510.92      1.9799801      10708603     
     27200   400.60676     -425223.32      2016.7685     -327677.14      4.1515138      10706254     
     27300   400.03623     -425294.92      2155.5454     -327746        -0.92134582     10706386     
     27400   401.88579     -425639.3       2016.524      -327788.36     -11.710447      10705794     
     27500   400.30724     -425357.49      2049.6661     -327849.83      4.5112151      10705500     
     27600   399.33297     -425199.34      2091.1757     -327882.5      -2.8641492      10707117     
     27700   399.83247     -425244.51      2055.4373     -327844.3       6.8902269      10705272     
     27800   400.82222     -425481.44      2043.5827     -327857.06     -0.94150757     10704316     
     27900   400.4943      -425409.8       2037.5919     -327869.61     -3.0449531      10706514     
     28000   400.2528      -425321.64      1981.8525     -327894.78      0.66234718     10707844     
     28100   399.51228     -425100.34      2026.4516     -327805.47      3.4019479      10711008     
     28200   399.12862     -424841.13      1974.4231     -327689.77     -1.4186915      10716662     
     28300   398.64687     -424828.9       2125.081      -327641.76      5.1470661      10715986     
     28400   400.61037     -425115.14      2021.1502     -327563.71      3.4515952      10712550     
     28500   400.37736     -425135.21      2061.6121     -327598.89      1.417357       10709875     
     28600   400.79794     -425292.97      2032.3669     -327685.6      -5.1278389      10708943     
     28700   400.18647     -425221.89      2034.5587     -327758.14      3.5538374      10709861     
     28800   400.23789     -425225.79      2026.5057     -327757.83     -1.0768158      10712427     
     28900   399.29639     -424983.23      2049.0399     -327717.24     -3.7767512      10716007     
     29000   400.28609     -425199         2080.434      -327665.62     -18.917463      10715672     
     29100   400.49886     -425116.3       1960.4951     -327652.12      6.8770114      10710076     
     29200   400.01162     -425238.76      2083.089      -327768.17      4.6294663      10706007     
     29300   399.4534      -425082.85      2018.4062     -327810.06      14.339751      10704636     
     29400   401.17393     -425613.01      2090.8998     -327857.44     -3.1071463      10705838     
     29500   401.03527     -425603.57      2052.4326     -327919.54     -3.113281       10707149     
     29600   400.69537     -425565         2040.9075     -327973.54     -6.5996125      10707848     
     29700   401.13081     -425627.74      1979.2873     -327994.07      0.31902342     10706776     
     29800   399.67643     -425429.93      2038.4412     -328083.92      5.0144349      10706488     
     29900   399.31455     -425388.01      2123.4197     -328043.32     -8.8415552      10708840     
     30000   399.48658     -425204.01      2043.9906     -327897.72      0.023536092    10709228     
     30100   399.98787     -425254.58      2038.7707     -327833.97      3.8798654      10708696     
     30200   400.17726     -425345.87      2089.3206     -327829.55      6.8144494      10708750     
     30300   399.67151     -425170.74      2004.9108     -327859.44      10.755135      10709519     
     30400   399.42443     -425126.53      1957.1803     -327921.87      4.9326618      10711935     
     30500   400.13978     -425305.93      2030.0626     -327857.8      -12.81719       10713487     
     30600   400.21638     -425253.13      2026.6144     -327790.19     -1.4367322      10712199     
     30700   400.42346     -425290.98      2035.7879     -327769.48      6.9789575      10712242     
     30800   399.39066     -425071.09      2010.2492     -327821.41      6.0165946      10714115     
     30900   400.39824     -425346.16      2047.8292     -327818.64     -5.7552409      10715707     
     31000   399.12419     -425090.5       2051.9512     -327862.67      8.3701883      10713751     
     31100   400.44182     -425405.05      2040.6076     -327874.36      4.8636616      10710376     
     31200   400.87286     -425588.72      2064.7144     -327931.13      3.5928696      10706479     
     31300   400.50024     -425545.16      2007.6466     -328033.49      4.5033238      10706325     
     31400   400.29638     -425634.33      2071.3899     -328107.53     -2.8832561      10710889     
     31500   399.47158     -425356.68      2094.8921     -328003.07     -1.98296        10715762     
     31600   399.73867     -425289.82      2085.637      -327881.77     -2.8609181      10717859     
     31700   399.18498     -425115.47      2108.6414     -327816.45     -3.1918548      10717735     
     31800   400.76802     -425380.72      2074.157      -327738.69      2.1249618      10714342     
     31900   399.9254      -425314.01      2129.4586     -327817.62      9.863022       10711290     
     32000   399.77549     -425270.53      2042.4344     -327896.9       7.9463332      10712759     
     32100   399.4055      -425163.94      1999.7769     -327921.2       9.1247892      10713938     
     32200   400.75735     -425533.45      2071.4719     -327896.65     -4.0866334      10715814     
     32300   399.22686     -425105.88      2057.013      -327848.5       2.8282679      10715689     
     32400   400.61961     -425295.86      1991.1706     -327772.2      -8.6803557      10712925     
     32500   400.48616     -425327.09      1982.1027     -327844.33      0.52752403     10709148     
     32600   401.39753     -425703.29      2028.1349     -327957.17     -2.2933359      10705338     
     32700   399.71078     -425467.92      2042.9659     -328109.2       7.8566266      10703230     
     32800   399.01271     -425442.73      2101.2521     -328192.17      3.7479772      10706805     
     32900   400.32408     -425686.68      2018.5104     -328206.17     -9.9116276      10709912     
     33000   400.4179      -425863.87      2157.8714     -328221.62     -7.2200887      10708295     
     33100   398.67806     -425295.81      2012.0293     -328214.29      13.826203      10705137     
     33200   400.63827     -425766.35      2007.0939     -328222.33      10.855215      10703170     
     33300   400.51395     -425865.91      2033.746      -328324.87      8.8776832      10705591     
     33400   400.25747     -425838.25      2048.7465     -328343.37     -12.456271      10711541     
     33500   399.14675     -425626.9       2169.753      -328275.88      0.26288575     10713000     
     33600   398.39875     -425286.96      2058.0923     -328225.97      14.481734      10711695     
     33700   400.25319     -425678.07      2072.3639     -328160.6      -0.85436147     10711020     
     33800   400.25965     -425630.31      2020.1305     -328163.54     -6.5976745      10709934     
     33900   400.08431     -425655.74      2090.8066     -328160.1       0.3807373      10708751     
     34000   400.041       -425671.11      2105.644      -328170.96      0.66894837     10707864     
     34100   399.5464      -425634.88      2083.6647     -328274.66      12.88119       10705308     
     34200   400.23053     -425924.65      2086.8237     -328398.13     -3.8760591      10705548     
     34300   400.96918     -426107.41      2081.8538     -328409.72     -18.818365      10706577     
     34400   399.43287     -425628.06      1930.0161     -328448.55      18.648684      10702899     
     34500   400.05983     -425950.94      2059.5379     -328492.41     -0.082802834    10703895     
     34600   399.38934     -425761.16      2061.1128     -328460.94      13.871742      10705771     
     34700   399.82033     -425800.08      2051.1828     -328407.01     -3.9038243      10709018     
     34800   400.63878     -425901.77      2014.42       -328350.29     -9.956441       10711405     
     34900   400.4221      -425796.5       2048.376      -328262.74     -7.5100689      10711631     
     35000   398.80263     -425389.77      2039.7061     -328250.86      11.464297      10711366     
     35100   398.66412     -425357.8       2059.5322     -328232.1       19.79832       10713007     
     35200   399.93422     -425643.27      2066.876      -328207.35     -13.40401       10715533     
     35300   399.75613     -425601.54      2120.4963     -328154.47     -3.6039023      10712211     
     35400   400.10128     -425544.91      2021.6601     -328114.37      8.2415967      10707968     
     35500   401.07471     -425830.93      1976.2008     -328213.73      7.5189932      10705930     
     35600   399.70507     -425665.31      2023.1814     -328327.73      3.7552829      10707715     
     35700   399.81827     -425795.33      2072.9468     -328380.99      1.6120442      10707734     
     35800   400.04195     -425849.29      2089.5047     -328365.05      1.8093333      10708102     
     35900   400.47584     -425768.43      1956.9734     -328313.26      3.9284505      10710495     
     36000   399.47362     -425601.05      2080.4145     -328261.43     -3.2016548      10715526     
     36100   400.22907     -425623.99      2045.0781     -328139.56     -3.6928654      10718520     
     36200   399.30776     -425363.51      2069.7657     -328074.08      3.4091271      10717751     
     36300   401.03652     -425753.52      2065.3284     -328056.29     -5.7358707      10715216     
     36400   400.78122     -425780.47      2113.0877     -328096.36     -4.5386089      10712068     
     36500   400.8651      -425832.12      2079.2673     -328161.83      8.9797817      10705198     
     36600   401.36583     -426037.33      2004.4884     -328322.41      3.0312365      10700737     
     36700   399.38599     -425701.91      2002.8669     -328460.73      9.5369237      10702372     
     36800   399.81745     -425929.15      2007.8033     -328580.15      1.5155398      10705682     
     36900   398.89242     -425781.34      2088.2281     -328572.5       1.0290501      10707864     
     37000   399.75262     -425873.13      2035.744      -328511.65     -2.1560603      10706186     
     37100   401.09725     -426155.31      2045.3978     -328463.53      1.892285       10703383     
     37200   401.4873      -426335.99      2054.1729     -328542.42     -14.466175      10703329     
     37300   400.39219     -426146.56      2004.5025     -328663.81     -2.3448154      10702108     
     37400   401.00526     -426344.73      2042.6802     -328677.61      2.9039363      10702913     
     37500   400.24864     -426221.92      2099.122      -328678.78     -10.646875      10707428     
     37600   400.64229     -426159.86      2004.873      -328617.1      -3.0278653      10710419     
     37700   399.0658      -425730.53      2050.5708     -328518        -2.1923921      10715024     
     37800   397.95731     -425376.37      2105.6002     -328373.15      10.282809      10715419     
     37900   399.81943     -425625.33      1984.5258     -328299.14      7.5102708      10713803     
     38000   400.47892     -425968.56      2115.16       -328354.47      2.683811       10712854     
     38100   398.86489     -425531.65      2034.6543     -328382.95      0.57492398     10712547     
     38200   401.22397     -426102.28      2094.2214     -328331.46     -10.585749      10710079     
     38300   398.92682     -425567.48      2051.979      -328386.68      7.8644592      10707388     
     38400   400.55021     -426019.98      2067.3203     -328436.73      5.5545579      10706119     
     38500   400.32787     -425980.66      1996.8284     -328520.92      0.85848252     10708442     
     38600   399.62093     -425828.2       2015.3595     -328518.51      0.45291574     10711484     
     38700   401.09186     -426199.21      2081.9386     -328472.17     -17.28411       10712909     
     38800   398.91841     -425709.7       2140.9175     -328441.97      5.3119389      10710518     
     38900   400.21172     -425831.51      2010.5223     -328385.77      9.8072453      10709855     
     39000   401.20213     -426151.1       2041.7527     -328437.96     -9.8306024      10712131     
     39100   399.49082     -425789.37      2065.9323     -328460.13     -1.2341361      10712238     
     39200   400.8068      -426212.4       2131.0614     -328504.21     -3.2341986      10706594     
     39300   401.09861     -426274.9       2049.0173     -328579.17     -3.5355149      10703302     
     39400   400.48813     -426303.47      2088.8092     -328713.53     -4.5355784      10702827     
     39500   399.90826     -426166.39      2058.871      -328744.67      1.96473        10704587     
     39600   399.72776     -426062.56      2060.3515     -328682.4      -4.2901274      10708183     
     39700   400.54941     -426062.01      2013.1313     -328533.14     -8.496912       10710062     
     39800   399.46017     -425766.94      2058.2151     -328452.72      2.2530314      10709291     
     39900   401.17669     -426103.5       1999.8311     -328438.34     -10.782712      10709079     
     40000   400.73513     -426008.6       2011.0504     -328437.52     -2.4366036      10708025     
     40100   399.80798     -425964.24      2084.4019     -328540.9      -2.8262521      10706924     
     40200   399.28738     -425934.99      2087.0814     -328633.11      10.332608      10705341     
     40300   399.85302     -426001.92      2021.9033     -328630.34      7.0211211      10706913     
     40400   399.56915     -425883.61      1982.6552     -328618.97     -2.7784947      10711455     
     40500   399.25889     -425805.48      2085.6752     -328511.8      -4.3010852      10713733     
     40600   400.56995     -425959.7       2012.0595     -328427        -10.051869      10713682     
     40700   401.67958     -426225.92      2002.0271     -328438.65     -16.544876      10713888     
     40800   399.73375     -425854.67      2062.3932     -328471.04      2.5510017      10711473     
     40900   399.60281     -425787.31      2066.4908     -328430.8       11.1303        10710503     
     41000   401.14061     -426160.1       2060.8364     -328442.54     -7.3819124      10710546     
     41100   400.43219     -426108.24      2095.3644     -328525.08      2.1129226      10708303     
     41200   401.45341     -426389.69      2034.2091     -328624.17     -5.0919757      10705299     
     41300   400.82324     -426362.59      2047.099      -328734.45     -0.33848637     10702430     
     41400   401.21295     -426554.74      2024.6244     -328856.15      9.4940334      10701085     
     41500   400.23902     -426395.61      2023.5713     -328930.32      1.7396975      10704125     
     41600   399.66962     -426354.91      2047.2684     -329001.69     -9.7704008      10706323     
     41700   400.10852     -426382.34      1981.6069     -328990.12      0.55944331     10703333     
     41800   399.17191     -426267.11      2054.206      -329025.64      8.2924314      10699895     
     41900   400.25503     -426495.45      1994.8328     -329055.08      9.520947       10698907     
     42000   400.3299      -426675.2       2097.2858     -329114.52      1.8684505      10701084     
     42100   399.77006     -426405.25      2018.5697     -329056.78     -6.5393063      10705087     
     42200   398.99919     -426080.11      1977.8386     -328956.2       7.6375528      10705939     
     42300   400.51739     -426476.26      2062.1381     -328906.01     -6.4339939      10703224     
     42400   400.41094     -426473.51      2038.6869     -328952.1       8.4158727      10697883     
     42500   400.18881     -426433.74      2009.0367     -328994.95      5.6120133      10699412     
     42600   400.1159      -426456.65      2043.4094     -329000.87     -2.9845939      10705650     
     42700   399.37653     -426168.7       1990.9952     -328941.65     -4.1928365      10710108     
     42800   399.64436     -426186.79      2022.6514     -328864.22     -1.9920885      10709401     
     42900   402.15356     -426748.01      2032.0093     -328817.73     -19.502784      10706072     
     43000   399.42653     -426105.84      2023.9824     -328833.88      5.9996223      10704164     
     43100   399.95698     -426389.96      2037.0138     -328978.48      6.566038       10702692     
     43200   400.41724     -426516.86      1997.0622     -329035.57     -3.3955093      10705833     
     43300   400.24805     -426507.17      2028.2035     -329035.09     -11.988594      10708293     
     43400   400.94612     -426654.86      2065.0997     -328979.42     -11.509617      10707683     
     43500   400.18508     -426413.75      2075.874      -328909.01      1.0206764      10706987     
     43600   399.95912     -426278.47      2038.5174     -328864.97      0.594224       10704996     
     43700   400.19312     -426357.94      2056.9461     -328870.21      6.9473477      10704117     
     43800   400.66566     -426580.02      2101.3878     -328935.17     -3.2867029      10706130     
     43900   401.83078     -426818.71      2045.934      -328951.48     -7.8119741      10706745     
     44000   398.84395     -426131.73      2026.4613     -328996.21      3.1480663      10708265     
     44100   399.71352     -426322.58      2048.5388     -328957.62     -6.6513118      10710467     
     44200   399.71816     -426134.03      1946.199      -328870.31      0.30521342     10708020     
     44300   400.26389     -426356.53      2073.9997     -328834.87      6.4081156      10704665     
     44400   400.96339     -426513.34      2071.8982     -328826.99     -7.1072961      10704726     
     44500   400.15871     -426332.32      2033.6957     -328876.04      4.6954247      10705705     
     44600   399.7056      -426260.74      2049.671      -328896.54     -6.0612929      10706678     
     44700   401.24023     -426587.66      2075.7572     -328831.43     -7.0985273      10706935     
     44800   401.10345     -426494.47      2033.4842     -328813.12     -10.477597      10707590     
     44900   399.83771     -426283.05      2108.1786     -328828.84      1.5490134      10706880     
     45000   398.84797     -426002.82      2061.0628     -328831.75      11.460214      10706638     
     45100   400.40591     -426357.6       2078.0421     -328798.03     -0.085957865    10708425     
     45200   400.62805     -426469.65      2071.6884     -328863.46     -5.1503208      10709621     
     45300   398.69765     -426089.76      2070.605      -328944.99      11.493485      10707971     
     45400   400.03122     -426443.06      2076.8879     -328974         1.2670365      10703781     
     45500   401.52011     -426823.08      2041.8418     -329034.02      3.0272982      10699134     
     45600   400.79039     -426827.88      2086.604      -329168.07      10.052292      10697506     
     45700   398.58068     -426370.62      2058.7542     -329265.59      10.860945      10700982     
     45800   398.34316     -426237.35      1996.3446     -329251.37      14.923061      10704777     
     45900   400.40086     -426697.39      2002.6061     -329214.47     -10.800036      10706405     
     46000   400.54152     -426730.97      2049.744      -329167.36     -11.935614      10704558     
     46100   401.13126     -426884.93      2089.9051     -329140.53      0.94343752     10701980     
     46200   398.88347     -426442.54      2131.5028     -329192.56     -1.1232092      10702567     
     46300   400.59595     -426736.98      2077.0121     -329133.12     -11.007465      10702419     
     46400   400.51346     -426689.65      2076.445      -329106.04      2.6973997      10701731     
     46500   400.57017     -426807.43      2079.9072     -329206.83     -2.6819926      10702116     
     46600   400.3572      -426731.46      2033.5184     -329228.03     -8.410373       10705107     
     46700   400.1003      -426665.28      2006.6546     -329249.98      5.4815824      10704976     
     46800   398.85195     -426229.14      1961.5415     -329156.63      10.155575      10706571     
     46900   399.51223     -426349.22      2001.4429     -329079.36      2.2295126      10708300     
     47000   401.55875     -426826.4       2026.6327     -329043.33     -8.0223444      10707508     
     47100   400.76515     -426613.59      1945.3311     -329101.07     -3.3520812      10704751     
     47200   399.25723     -426291.25      1975.1144     -329108.53     -0.48435499     10700889     
     47300   401.16863     -426953.74      2100.9117     -329189.43     -3.1873706      10695344     
     47400   399.53924     -426744.68      2116.1683     -329353.65      8.7133647      10692671     
     47500   400.27455     -426997.47      2062.5596     -329484.71     -4.2909342      10691987     
     47600   399.65081     -426927.95      2018.0045     -329608.48      8.8864777      10691728     
     47700   400.53196     -427174.99      2009.2232     -329654.19      4.5221776      10693029     
     47800   400.15656     -427087.26      2025.9825     -329639.22     -4.4845737      10696872     
     47900   399.03446     -426757.68      2044.7137     -329558.48     -6.1137415      10701470     
     48000   398.88514     -426535.81      2051.3229     -329365.61     -3.200385       10703947     
     48100   399.29205     -426464.84      2003.758      -329245.17      12.384147      10702567     
     48200   400.15566     -426581.78      1991.8447     -329168.09      2.424862       10705247     
     48300   399.56993     -426501.45      2066.7089     -329152.57      1.7385087      10709565     
     48400   398.56657     -426121.05      2038.786      -329039.35      9.7618048      10712823     
     48500   398.95311     -426080.83      2027.7686     -328917.97     -9.1751036      10713503     
     48600   400.36284     -426324.88      2027.9119     -328825.72      8.5042087      10707474     
     48700   401.28141     -426614.54      1996.9686     -328927.27     -0.66474788     10705070     
     48800   399.51422     -426375.27      2084.4672     -329021.91      0.10162937     10706016     
     48900   399.65494     -426445.3       2056.0376     -329086.82      4.3287929      10704989     
     49000   400.20729     -426580.59      2055.5905     -329090.84     -2.2535881      10704666     
     49100   400.85239     -426717.61      2034.4073     -329095.21      1.2628717      10703503     
     49200   399.66341     -426482.75      2025.8952     -329152.39      0.5084257      10705586     
     49300   400.33244     -426536.76      1986.0609     -329086.69     -4.5742474      10707667     
     49400   400.38252     -426527.11      2024.0003     -329027.16      2.5221822      10706317     
     49500   400.48038     -426602.7       2038.1405     -329065.28      4.9573216      10705061     
     49600   398.34354     -426069.3       2040.6197     -329038.95      11.133504      10706767     
     49700   399.77287     -426330.97      2019.072      -328981.33      2.0748349      10708135     
     49800   400.11188     -426475.73      2065.2414     -328999.08     -4.6528042      10709743     
     49900   399.77231     -426419.81      2046.5534     -329042.83      10.344348      10706712     
     50000   400.95094     -426731.52      2033.3632     -329086.66     -1.9864914      10702537     
     50100   400.98255     -426847.51      2050.2876     -329178.2      -5.1022888      10699227     
     50200   401.44674     -427035.21      2007.4403     -329298.05     -1.7989112      10697527     
     50300   399.98968     -426784.46      2058.1561     -329344.04      1.5996377      10700187     
     50400   398.67143     -426506.54      2087.3123     -329351.31      6.3664417      10702636     
     50500   400.0458      -426782.4       2043.3698     -329343.38     -2.6394849      10703730     
     50600   399.34655     -426586         2048.953      -329308.14      8.6694162      10702747     
     50700   400.28728     -426767.26      2052.7443     -329261.28      3.0741265      10701608     
     50800   401.88387     -427207.66      2094.9237     -329278.78     -16.663398      10701312     
     50900   400.56525     -426849.99      2005.3875     -329325.09      4.8003456      10701047     
     51000   399.51486     -426692.18      2039.9217     -329383.21      5.5749625      10700715     
     51100   400.09407     -426723.47      1977.5409     -329338.77      0.99127607     10702045     
     51200   400.15299     -426761.93      2048.1895     -329292.53     -9.9548712      10702826     
     51300   400.04965     -426668.58      2019.9732     -329252.04      2.6518944      10700676     
     51400   400.31728     -426697.33      1972.7884     -329264.15      6.1760298      10700011     
     51500   401.21914     -427052.03      2006.6277     -329369.95     -9.6254684      10700797     
     51600   400.08841     -426879.81      2075.8967     -329398.1      -6.8867358      10700617     
     51700   400.29479     -426937.51      2056.8856     -329425.6       1.9382977      10699367     
     51800   398.86247     -426645.88      2062.3014     -329470.11      7.248721       10699386     
     51900   401.05021     -427100.44      2027.9377     -329437.34     -16.893077      10700262     
     52000   400.5865      -427018.84      2078.907      -329415.35      0.29498547     10696922     
     52100   400.29662     -426918.51      2010.2282     -329452.82      15.191239      10694045     
     52200   400.54006     -427063.57      2029.9693     -329520.08      8.1937824      10694424     
     52300   399.3834      -426850         2025.7372     -329586.57      3.6776706      10697732     
     52400   398.1314      -426537.41      2045.2151     -329553.06      7.805425       10700937     
     52500   399.86594     -426821.62      2034.3647     -329434.5       1.5765211      10701042     
     52600   400.27963     -426983.22      2092.9582     -329438.85      3.30002        10700612     
     52700   400.54772     -426980.2       1999.3037     -329465.56     -6.3628665      10703011     
     52800   400.77386     -427002.62      2083.1388     -329350.21     -22.457666      10706174     
     52900   400.13567     -426740.02      2030.2495     -329292.69     -7.4311773      10701035     
     53000   399.69299     -426683.22      2048.2749     -329323.43      9.6562039      10694311     
     53100   401.25519     -427142.34      2033.676      -329424.62     -1.6122538      10692426     
     53200   401.32664     -427210.69      1960.8227     -329548.78     -0.13100009     10693114     
     53300   400.03272     -427010.7       2020.3237     -329597.84     -6.2352911      10695360     
     53400   399.21623     -426733.1       2007.1147     -329528.16      8.0642567      10695726     
     53500   399.04994     -426700.02      2034.954      -329506.89      8.4604079      10695483     
     53600   399.28215     -426725.01      2007.9591     -329503.5       7.7088785      10698743     
     53700   399.03288     -426690.64      2065.4969     -329471.03      1.5037251      10702901     
     53800   400.8769      -426948.34      1991.5154     -329362.99     -16.728146      10703996     
     53900   399.18896     -426630.99      2131.0002     -329308.67      11.830282      10699170     
     54000   400.33579     -426835         2046.2197     -329323.97      3.3883751      10697134     
     54100   399.94466     -426800.18      2014.9308     -329413.71      2.9941532      10697744     
     54200   399.02148     -426615.67      2041.3947     -329422.89      4.0624751      10699988     
     54300   400.73552     -426922.58      2000.0153     -329362.44     -9.5314994      10703545     
     54400   400.69586     -426919.36      2021.3198     -329347.37     -14.711041      10704587     
     54500   399.49567     -426621.31      2005.1453     -329351.7       4.7110893      10702651     
     54600   399.97226     -426719.46      2024.6505     -329316.7       6.9711637      10699135     
     54700   401.15854     -426991.15      1993.659      -329336.5       3.4751342      10697276     
     54800   398.95653     -426664.1       2068.423      -329459.77      10.793648      10698022     
     54900   399.26374     -426773.44      2015.8973     -329548.38      1.6179119      10701347     
     55000   399.75631     -426848.01      2016.7885     -329504.6      -4.7254479      10702174     
     55100   399.38056     -426699.18      2004.8904     -329457.28      10.115164      10700845     
     55200   400.19674     -426951.99      2101.9689     -329418.38     -4.7507248      10701235     
     55300   400.63723     -426930.46      2012.3027     -329381.47     -13.149638      10701776     
     55400   399.42344     -426724.9       2056.4039     -329421.25      4.8198775      10698507     
     55500   399.43985     -426671.67      1931.3819     -329489.13      14.372101      10696303     
     55600   400.67571     -427089.25      1986.9991     -329556.39      3.9732732      10698553     
     55700   399.45367     -426816.82      1971.8782     -329590.49      3.5885598      10702826     
     55800   399.58657     -426855.4       2056.3629     -329512.9      -1.6388061      10704098     
     55900   399.69753     -426876.97      2095.9893     -329468.37     -8.2488634      10702652     
     56000   399.66863     -426749.51      2026.1748     -329417.63      7.9879318      10702704     
     56100   399.76249     -426798.83      2044.8226     -329425.91      2.9355395      10702307     
     56200   398.85918     -426558.76      1995.1317     -329450.94      10.767978      10700490     
     56300   399.96108     -426817.06      2005.1791     -329436.44      2.4938916      10697721     
     56400   400.66449     -427083.18      2035.797      -329504.2       7.3055579      10695307     
     56500   399.66214     -426936.81      2063.7557     -329568.89      6.6524851      10697932     
     56600   399.82845     -426881.65      2034.4498     -329503.38      1.6021845      10702471     
     56700   398.92143     -426621.28      2050.6599     -329443.09      5.7525119      10703714     
     56800   400.35908     -426804.02      2030.4768     -329303.19     -3.748901       10706152     
     56900   401.25935     -426956.12      2051.5689     -329219.51     -12.42886       10707981     
     57000   399.70676     -426464.54      1981.5925     -329168.15     -3.9899477      10707768     
     57100   400.245       -426660.45      2076.9009     -329140.4       9.0247868      10705186     
     57200   399.8789      -426641.04      2081.0914     -329204.1      -1.7258262      10704588     
     57300   400.70222     -426838.76      2072.0897     -329214.49      8.7331073      10702123     
     57400   399.90551     -426648.41      2027.8967     -329258.32      5.5173315      10701287     
     57500   401.5072      -427179.86      2078.9388     -329356.78     -9.6487928      10700869     
     57600   401.03769     -427089.45      2010.2033     -329447.07     -9.8325143      10699815     
     57700   399.71266     -426787.77      2017.674      -329453.89      4.4647082      10698935     
     57800   399.82497     -426853.69      2045.6351     -329465.07      7.6038342      10699704     
     57900   400.18933     -426974.1       2080.5083     -329463.71     -4.6294039      10702275     
     58000   399.25715     -426740.56      2097.0642     -329435.91     -0.20679145     10705736     
     58100   400.24349     -426887.78      2062.0402     -329382.95     -14.488022      10706316     
     58200   399.93873     -426784.8       2055.865      -329358.82      2.6599969      10701574     
     58300   400.17617     -426821.45      2006.4911     -329388.22      16.769731      10698759     
     58400   400.90024     -427134.05      2051.6662     -329482.98     -2.9062623      10701375     
     58500   398.89112     -426669.62      2027.3385     -329521.98      5.359398       10703309     
     58600   399.99335     -426809.35      1995.3214     -329430.88      1.9836266      10702165     
     58700   400.16526     -426882.62      2009.991      -329448.49      6.4811276      10698910     
     58800   400.69422     -427119.58      2018.6983     -329550.6       9.9265537      10696347     
     58900   399.35177     -426942.24      2041.7393     -329670.35      6.1619151      10697732     
     59000   399.15977     -426851.04      1990.9592     -329675.71     -0.52861214     10699368     
     59100   399.9122      -426985.14      1995.1968     -329626.15      9.0188174      10698472     
     59200   399.5271      -426920.4       2022.8451     -329625.59      2.0414246      10699012     
     59300   398.48813     -426678.61      1989.8845     -329664.52      14.634938      10700989     
     59400   399.10079     -426803.08      2035.4997     -329597.28      3.6503796      10703652     
     59500   399.92538     -426908.62      2030.24       -329511.45     -3.5352314      10706588     
     59600   400.47658     -426878.92      1945.9098     -329434.63     -2.3928823      10707893     
     59700   397.9943      -426308.48      2028.7598     -329373.27      9.077037       10706811     
     59800   400.30125     -426796.31      2061.209      -329278.54      4.95227        10703475     
     59900   399.62105     -426672.71      2054.8484     -329323.5       13.457892      10701097     
     60000   399.92982     -426834.6       2046.7852     -329419.82     -1.3641407      10700742     
     60100   400.89361     -427093.59      2081.2051     -329414.57     -9.9411725      10699977     
     60200   401.25751     -427118.8       2001.6897     -329432.51     -2.3173984      10698866     
     60300   401.30417     -427194.65      1982.046      -329516.88     -1.7858134      10698206     
     60400   400.57402     -427069.69      1971.6899     -329576.39      0.5784438      10699850     
     60500   400.05097     -426955.77      1965.4248     -329593.46     -3.6532196      10704311     
     60600   399.09082     -426719.19      2046.3512     -329504.92     -7.8649155      10706673     
     60700   400.94245     -427056.09      2070.8589     -329375.76     -0.58968884     10704922     
     60800   399.63338     -426693.73      2039.5512     -329356.88      12.593554      10705183     
     60900   400.59206     -426938.88      2070.1917     -329342.78     -5.1920815      10707187     
     61000   399.05399     -426594.74      2063.4162     -329372.18      6.9492174      10706822     
     61100   400.53942     -426980.39      2044.8598     -329422.17      2.0854856      10704793     
     61200   400.3615      -426934.23      2059.3884     -329403.91     -3.6287488      10706740     
     61300   399.30545     -426728.2       2083.3638     -329425.73      6.1275085      10707224     
     61400   399.64001     -426700.59      2021.1153     -329380.59      1.7257136      10705101     
     61500   399.7202      -426650.28      1985.4735     -329346.8       5.3791903      10703047     
     61600   400.06636     -426770.27      2004.3162     -329365.4       8.438695       10704050     
     61700   399.36799     -426629.9       1996.6558     -329399.22      1.3312791      10705068     
     61800   400.16193     -426900.27      2052.1108     -329424.81     -5.2135564      10702622     
     61900   401.65064     -427199.79      1951.7816     -329469.67     -5.7368865      10699123     
     62000   400.83923     -427150.18      2000.1778     -329565.15      5.8647694      10696638     
     62100   400.39595     -427093.28      2018.2873     -329595.85      0.80319556     10696658     
     62200   399.57522     -426979.61      2118.55       -329577.62      5.6380076      10698948     
     62300   399.73371     -426897.29      2071.6751     -329504.39     -1.4024251      10704360     
     62400   399.37865     -426793.71      2069.6931     -329487.45     -4.2641671      10707019     
     62500   400.75904     -427007.81      1955.8209     -329486.26     -3.1091807      10705084     
     62600   399.99295     -426979.81      1999.7471     -329597.01      13.008566      10700381     
     62700   401.16848     -427438.86      2138.0266     -329637.46     -9.0325509      10696940     
     62800   399.98725     -427080.99      2017.1173     -329682.18      11.779833      10694732     
     62900   400.80824     -427385.63      2044.1764     -329763.99     -10.432508      10696689     
     63000   400.48782     -427303.72      1994.92       -329807.74     -9.5163928      10699528     
     63100   398.31609     -426840.13      2067.4003     -329789.55      0.22467271     10700674     
     63200   400.4103      -427218.63      1969.2172     -329766.85      0.54189998     10698551     
     63300   398.93399     -427005.29      2129.5164     -329745.25      4.4022206      10699267     
     63400   399.26507     -426869.99      2011.3717     -329649.14      2.248619       10701223     
     63500   399.92283     -426894.48      1998.1977     -329529.96      0.74171876     10701812     
     63600   400.43988     -426995.04      1989.6276     -329515.79     -1.7674183      10700724     
     63700   401.55896     -427250.74      1957.703      -329536.56     -7.221069       10699081     
     63800   399.54472     -426948.28      2075.5107     -329596.6       9.3568319      10697444     
     63900   400.39733     -427165.7       2082.7633     -329603.45     -3.00887        10698248     
     64000   400.45584     -427075.43      2017.0446     -329564.96     -1.8654666      10699737     
     64100   400.26945     -426972.42      1999.9804     -329523.45     -1.1211766      10703861     
     64200   397.93391     -426340.19      2038.3342     -329409.81      17.535618      10705852     
     64300   398.58799     -426460.49      2085.0746     -329327.4       12.774491      10706669     
     64400   399.70959     -426679.65      2064.8745     -329299.3       9.6559336      10705905     
     64500   399.24972     -426592.98      2059.4818     -329327.68      0.92646763     10705674     
     64600   399.05438     -426470.57      2004.1249     -329307.21      0.40300608     10704439     
     64700   400.01091     -426752.09      2016.7443     -329348.02      7.3404281      10700193     
     64800   401.23461     -427233.18      2082.9238     -329471.12      3.3212605      10698624     
     64900   399.71273     -426915.11      2061.6281     -329537.25      0.36529566     10701850     
     65000   398.91622     -426742.86      2075.2526     -329541.32      1.9937286      10705584     
     65100   399.78422     -426867.41      2064.3524     -329469.79      5.073136       10708079     
     65200   399.9561      -426826.5       2005.6378     -329446.6      -0.77820207     10707838     
     65300   398.58313     -426527.85      2038.9949     -329442         15.09533       10705123     
     65400   399.89861     -426866.61      2006.2199     -329499.84      1.5156421      10701488     
     65500   400.4089      -427122.14      2054.2354     -329585.66      7.0247799      10697100     
     65600   400.16202     -427205.59      2099.1892     -329683.03     -1.9141034      10696572     
     65700   398.9808      -426858.56      2027.5696     -329689.3       13.903357      10698841     
     65800   401.92917     -427549.76      2015.7238     -329689.28     -24.726176      10703303     
     65900   399.43986     -426855.21      1959.5507     -329644.51      7.1939335      10704856     
     66000   398.04278     -426662.43      2103.3193     -329641.1       9.1486898      10704405     
     66100   400.7009      -427137.76      2049.7513     -329536.14     -1.5743449      10701914     
     66200   399.44077     -426858.15      2035.28       -329571.5       21.299693      10698868     
     66300   401.05899     -427277.74      1961.7034     -329678.78      1.8470349      10699048     
     66400   398.99817     -426942.46      2070.8109     -329725.82      4.722873       10701393     
     66500   400.51852     -427197.25      1989.5033     -329699.37     -5.4222946      10703787     
     66600   400.80529     -427270.29      2049.992      -329643.54     -18.250631      10704593     
     66700   399.86407     -427082.25      2113.4774     -329616.46      7.8597277      10700395     
     66800   400.23472     -427174.84      2051.892      -329682.25      7.2883385      10699561     
     66900   399.45423     -426973.03      1956.1644     -329762.28      11.082387      10701314     
     67000   399.91065     -427071.64      2015.8068     -329692.41      0.073293541    10706056     
     67100   399.08627     -426771.63      2077.6115     -329527.18     -3.1132792      10710867     
     67200   400.24551     -426877.63      2000.7148     -329433.64     -13.144727      10710539     
     67300   399.83527     -426786.57      2032.9202     -329408.21      3.7528227      10705654     
     67400   400.72356     -427013.74      2017.6022     -329438.87      0.43240042     10703870     
     67500   401.07618     -427261.37      2088.696      -329531.32     -8.3448794      10705047     
     67600   399.29068     -426758.22      1990.7019     -329551.94      3.9272278      10705679     
     67700   401.42246     -427264.72      1979.5029     -329561.29     -9.8834678      10704948     
     67800   401.02906     -427183.65      1965.9682     -329587.56     -0.59625039     10702405     
     67900   400.36006     -427204.14      2016.242      -329717.31      8.4513197      10699440     
     68000   400.05564     -427206.78      1957.3971     -329851.39      13.640305      10697780     
     68100   399.06408     -427182.28      2024.2981     -329996.43      1.2313573      10698669     
     68200   400.43315     -427491.56      1998.4589     -330005.08      0.78040582     10698911     
     68300   399.16851     -427204.26      2007.3847     -330010.42      6.4646447      10699860     
     68400   399.75171     -427330.75      2093.0982     -329912.13     -22.07529       10702451     
     68500   399.86698     -427154.17      2068.8008     -329732.36      9.4359838      10699712     
     68600   401.28605     -427455.11      2038.3117     -329725.39      3.2401617      10697300     
     68700   400.02059     -427203.37      1999.9257     -329813.81      4.0828542      10699302     
     68800   398.35016     -426925.96      2066.4204     -329868.24      2.6900417      10704203     
     68900   400.2943      -427293.25      2074.5669     -329763.77     -16.271217      10704771     
     69000   399.624       -427074.32      2036.2925     -329742.96      8.2833802      10697404     
     69100   400.47916     -427391.74      2060.7237     -329832.02      11.790666      10691274     
     69200   400.34448     -427514.52      2003.4332     -330044.21      7.779398       10688938     
     69300   399.17728     -427456.6       2082.7463     -330185.31      10.363071      10691649     
     69400   399.67706     -427481.14      2020.6974     -330152.73      7.7761127      10697154     
     69500   399.49072     -427350.06      2056.7996     -330029.98     -2.7952514      10703608     
     69600   397.60133     -426694.34      2051.2421     -329830.36      3.6987095      10706712     
     69700   399.36599     -427005.73      2062.2916     -329709.89     -4.041976       10703425     
     69800   400.99366     -427360.35      2081.6574     -329657.01      5.5745227      10695301     
     69900   401.54695     -427695.75      2073.4549     -329868.68     -1.1854181      10691288     
     70000   399.45635     -427370.68      2107.8984     -330007.69      11.933932      10694851     
     70100   399.16605     -427250.17      2028.1329     -330036.17      0.88833452     10701490     
     70200   399.0262      -427250.74      2113.9098     -329984.32     -3.3061575      10705393     
     70300   399.68783     -427203.34      2048.911      -329844.14      3.2007784      10703370     
     70400   400.73758     -427307.44      2000.1123     -329746.71      0.58288108     10701053     
     70500   401.0333      -427370.76      1999.7282     -329739.91     -6.0860386      10702534     
     70600   401.0384      -427488.89      2096.2523     -329760.29     -5.1052355      10701588     
     70700   400.11644     -427266.98      2049.4007     -329805.08     -7.4822293      10701133     
     70800   400.33854     -427343.24      1996.0153     -329881.77     -5.0162745      10698112     
     70900   401.50449     -427855         2106.6949     -330004.81     -11.123798      10693874     
     71000   400.01362     -427557.07      2061.7872     -330107.31      14.868531      10690450     
     71100   399.26699     -427507.05      2091.2907     -330205.82      3.354973       10691642     
     71200   400.11035     -427630.79      2068.7529     -330151        -0.78191774     10692883     
     71300   400.23876     -427516.53      1981.8676     -330092.99     -0.1892478      10694749     
     71400   400.887       -427689.17      2026.3395     -330066.58     -0.66711928     10697129     
     71500   399.10667     -427132.78      1967.1137     -329993.96      4.7363387      10701241     
     71600   399.50014     -427242         2035.5757     -329940.89     -3.874124       10701865     
     71700   399.36955     -427190.45      2093.6959     -329862.37      3.9671809      10698147     
     71800   400.02341     -427346.28      2084.9816     -329870.99      10.391539      10694522     
     71900   401.76287     -427895.01      2071.3348     -330018.57      3.5724186      10693555     
     72000   399.73451     -427490.03      2034.7014     -330133.9      -6.0994947      10697836     
     72100   398.95325     -427312.2       2110.3023     -330066.78     -1.6710662      10699946     
     72200   400.04566     -427421.5       2038.5907     -329987.29      0.86450274     10698830     
     72300   399.89948     -427380.18      2046.0899     -329973.33      4.8441556      10698421     
     72400   398.00138     -426901.03      1978.3305     -330014.56      14.069611      10697737     
     72500   401.71158     -427815.94      2033.1365     -329989.92     -0.74001913     10695193     
     72600   399.87732     -427562.29      2053.1611     -330153.66     -1.2310877      10693975     
     72700   398.86848     -427373.17      2038.2433     -330220.02      7.8825166      10695065     
     72800   399.48478     -427433.58      2010.1425     -330161.57     -0.7714966      10697260     
     72900   400.10321     -427457.49      1987.5144     -330060.63      0.54303622     10698554     
     73000   399.5563      -427342.36      2030.8028     -330032.63     -3.6996908      10699056     
     73100   399.33044     -427321.41      2031.7892     -330064.55      9.1834042      10698191     
     73200   400.25145     -427574.27      2082.376      -330047.2       0.57573075     10698390     
     73300   399.15284     -427299.75      2067.508      -330049.53      4.1535814      10698173     
     73400   400.6177      -427576.42      2056.77       -329987.62      0.079346667    10697298     
     73500   399.74745     -427355.41      2044.7694     -329986.14     -0.53341189     10699026     
     73600   399.50525     -427270.92      1995.6246     -330008.55      4.1372774      10701134     
     73700   401.21373     -427698.75      2010.6294     -330013.97     -8.9010042      10700746     
     73800   401.2503      -427716.58      1998.5541     -330035.15     -9.3154608      10696810     
     73900   399.98129     -427483.57      2024.7751     -330078.53      8.3974225      10693734     
     74000   399.41035     -427411.43      2045.3814     -330121.93      6.9741628      10694360     
     74100   399.70268     -427503.03      2005.3662     -330183.84      7.6554648      10696258     
     74200   400.13714     -427699.28      2111.524      -330170.32     -8.9270595      10697168     
     74300   399.44283     -427388.63      2011.5482     -330125.22      3.4319624      10694979     
     74400   400.70467     -427603.74      1989.6136     -330061.36     -0.4445578      10693871     
     74500   400.51009     -427527.42      1987.5484     -330033.51     -6.4674622      10695841     
     74600   400.91788     -427563.37      1951.7805     -330007.98     -0.001273253    10697286     
     74700   398.85553     -427067.41      2007.0152     -329948.58      10.016628      10699562     
     74800   399.57158     -427249.04      2054.9836     -329911.49      3.5782973      10701138     
     74900   400.54551     -427459.65      2021.5483     -329923.29     -10.759629      10700149     
     75000   400.92077     -427654.43      2086.2265     -329963.91     -0.55427823     10697465     
     75100   401.59174     -427860.07      2041.2742     -330054.5      -15.010267      10697245     
     75200   400.29517     -427542.67      1978.1288     -330109.43      0.68715463     10697485     
     75300   399.09704     -427309.11      2036.1116     -330103.59      2.415786       10698439     
     75400   400.57327     -427601.36      2020.7553     -330059.17     -4.545526       10697336     
     75500   401.74553     -428010.12      2044.6904     -330164.46     -18.708306      10693624     
     75600   400.99229     -427862.4       2010.9679     -330230.08     -2.9269711      10687247     
     75700   400.52183     -427773.31      1995.3622     -330268.78      4.1593181      10686015     
     75800   400.10156     -427711.58      2042.5546     -330260.08      0.9460973      10691689     
     75900   399.73542     -427624.52      2082.5972     -330220.28     -7.2581505      10698138     
     76000   400.01382     -427623.56      2105.3337     -330130.2      -19.486831      10700802     
     76100   399.98837     -427387.31      1985.3252     -330020.03     -6.505151       10697181     
     76200   401.32383     -427700.55      2001.5506     -329998.59      0.60347344     10692396     
     76300   400.60641     -427653.59      2047.8144     -330076.44     -1.9132526      10691391     
     76400   401.20594     -427887.59      2088.3245     -330126.96     -15.422729      10691766     
     76500   399.17424     -427396.94      2038.1243     -330171         7.5895625      10691174     
     76600   401.23125     -427918.69      2013.103      -330227.25     -1.1048596      10689801     
     76700   399.9859      -427698.09      2031.4139     -330285.31      5.6220734      10689090     
     76800   399.47213     -427582.07      2010.9893     -330312.23      7.2713637      10691020     
     76900   398.38486     -427300.83      2047.8554     -330253.39      0.48177066     10695637     
     77000   399.17068     -427354.77      2046.4776     -330121.33      7.0180772      10696345     
     77100   400.99323     -427747.1       2093.6349     -330031.89     -15.990282      10696272     
     77200   400.09156     -427505.48      2060.5846     -330038.33     -2.0520539      10696233     
     77300   399.08691     -427284.11      2094.773      -330022.34      1.5348094      10696014     
     77400   398.88315     -427175.22      2095.8572     -329960.96      13.379669      10693310     
     77500   400.18284     -427473.56      2080.8721     -329964.36      7.9540641      10693420     
     77600   399.35409     -427212.11      1952.7136     -330028.69      10.511916      10697803     
     77700   398.49062     -427014.49      1995.4762     -329994.21      1.3998667      10701899     
     77800   399.66187     -427236.64      1979.51       -329953.03      1.686657       10700526     
     77900   399.2675      -427097.49      2033.3729     -329854.06      1.0797355      10699719     
     78000   400.6465      -427356.54      2003.2469     -329814.4       6.4384714      10698925     
     78100   400.33374     -427321.47      1986.321      -329870.84     -8.6459561      10700278     
     78200   400.04641     -427413.11      2060.1164     -329957.2       4.1112992      10698017     
     78300   401.1372      -427689.63      2043.3053     -329990.42     -4.6480539      10695704     
     78400   400.51956     -427541.67      2002.5179     -330030.53      2.1040639      10692224     
     78500   398.60951     -427297.74      2097.2019     -330147.39      18.392056      10690009     
     78600   399.83374     -427638.21      2039.3886     -330253.74      6.7552462      10690572     
     78700   399.66573     -427628.6       2035.2104     -330288.38      2.4545354      10693889     
     78800   400.37926     -427747.37      2062.225      -330209.98     -11.503518      10699652     
     78900   399.50673     -427329.74      2013.3499     -330049.28     -6.4358191      10702116     
     79000   401.27186     -427597.85      1983.115      -329926.71     -11.347011      10699219     
     79100   399.40739     -427202.35      1993.8643     -329965.07      15.253786      10694821     
     79200   400.47219     -427546.19      2027.5915     -330021.27      1.8570297      10695624     
     79300   400.02429     -427542.98      2051.7626     -330100.7      -3.5202707      10696692     
     79400   399.57212     -427420.39      2059.7631     -330077.93     -1.0781556      10698767     
     79500   399.23717     -427269.14      2018.4536     -330047.86      3.9863984      10698206     
     79600   398.72627     -427117.39      2038.0747     -329998.32      14.960598      10696665     
     79700   398.65434     -426988.95      2018.9925     -329906.11      8.4252603      10700915     
     79800   398.95057     -427003.53      2049.5307     -329819.52     -2.9132628      10703300     
     79900   398.30698     -426737.1       2016.1469     -329739.94      10.000906      10700946     
     80000   400.89401     -427410.51      2033.8351     -329778.76      2.7321817      10696503     
     80100   398.70555     -427029.46      2072.9619     -329880.45      11.164147      10694825     
     80200   399.91256     -427372.94      2026.76       -329982.3       3.9470338      10694030     
     80300   399.0304      -427300.77      2069.7529     -330077.5       6.590223       10694401     
     80400   399.45026     -427363.71      2039.7263     -330070.35      4.0812352      10696780     
     80500   400.95359     -427756.44      2085.2944     -330059.02     -7.3091753      10698747     
     80600   399.32452     -427284.47      2063.9006     -329996.92     -2.0010564      10701926     
     80700   400.33156     -427459.95      2077.403      -329918.75     -11.068339      10700638     
     80800   401.60413     -427736.16      2027.0904     -329941.82     -1.0259947      10694845     
     80900   400.01273     -427448.06      1989.5015     -330070.79      21.364083      10692620     
     81000   399.34115     -427487.1       2095.9905     -330163.49      4.626216       10695410     
[...]
   2691900   298.53331     -493421.29      1562.3823     -420670.11     -0.34280311     9598154.6    
   2692000   300.50003     -493752.01      1619.2701     -420474.95      2.5697006      9593077.6    
   2692100   300.5645      -493677.87      1588.6324     -420416.08      17.171378      9590303.2    
   2692200   300.01808     -493954.84      1583.6195     -420828.36     -13.216632      9593958.4    
   2692300   300.42325     -494130.87      1513.0077     -420978.38     -16.421989      9593987.5    
   2692400   300.18724     -493924.11      1556.1969     -420784.71      10.772918      9588488.5    
   2692500   300.96409     -493697.07      1588.0594     -420340.57      16.905236      9588287.9    
   2692600   301.47599     -493698.93      1597.8078     -420210.61     -7.8727656      9596217.1    
   2692700   299.75115     -493707.47      1539.5009     -420688.76     -19.777024      9599852.5    
   2692800   300.31182     -494062.75      1570.3068     -420879.54     -2.1210368      9590100.8    
   2692900   300.27774     -494114.89      1577.1004     -420933.01      25.898026      9582699.9    
   2693000   298.86638     -494028.49      1582.3827     -421177.89     -1.9813694      9588249.6    
   2693100   299.69531     -494242.55      1590.5418     -421186.11     -11.947113      9590747.5    
   2693200   300.85829     -493890.51      1564.1302     -420583.16      19.053099      9586077.6    
   2693300   301.01048     -493865.02      1584.1198     -420501.39      6.5709131      9590532.7    
   2693400   298.90401     -493719.34      1553.4415     -420888.71     -7.4180541      9595645.6    
   2693500   299.45044     -493922.35      1521.729      -420993.12      4.3255701      9590036      
   2693600   301.09989     -494300.28      1583.3844     -420916.07      5.7735934      9583738.5    
   2693700   299.11711     -493965.6       1556.0445     -421081.54      24.634165      9584518.4    
   2693800   298.20072     -494256.36      1560.5523     -421586.32     -14.505238      9589955.8    
   2693900   298.12846     -493961.21      1555.44       -421313.52      15.856194      9584259.3    
   2694000   301.55686     -494526.8       1580.296      -421036.71      6.3476567      9580714.9    
   2694100   300.18404     -494188.82      1581.4128     -421024.98     -7.1025015      9588442.2    
   2694200   300.52681     -494216.42      1586.2213     -420966.03     -20.515637      9591833.8    
   2694300   301.14431     -494020         1597.7235     -420610.86      5.3479404      9587540.5    
   2694400   301.02647     -493772.8       1607.244      -420382.24      10.192377      9588562.4    
   2694500   300.56504     -494003.67      1536.984      -420793.4      -8.3388796      9593200.2    
   2694600   299.5108      -494042.53      1552.0914     -421068.54     -13.111089      9592145.6    
   2694700   300.41082     -494216.25      1556.6964     -421023.04      13.143111      9581980.7    
   2694800   300.34011     -494353.84      1577.6423     -421156.55      9.4675422      9581312.2    
   2694900   298.70642     -494285.12      1570.3278     -421484.72     -12.947313      9588753.3    
   2695000   299.55443     -494708.88      1569.3004     -421707.28     -20.580841      9584095.8    
   2695100   299.60382     -494528.62      1604.8511     -421479.7       14.418157      9573151      
   2695200   300.62975     -494320.22      1539.6661     -421091.83      24.097242      9577483.1    
   2695300   299.14674     -493763.45      1514.7266     -420913.65     -11.895404      9596308.9    
   2695400   300.001       -493510.97      1512.8292     -420459.36     -23.205478      9602432.7    
   2695500   300.68655     -493474.11      1511.3278     -420260.51      2.4686921      9594245.3    
   2695600   300.65667     -493740.33      1605.9061     -420439.29      9.3201723      9588136.8    
   2695700   300.29291     -494096.39      1636.3617     -420851.64     -0.84344934     9588116.2    
   2695800   299.00197     -493925.73      1580.4228     -421044.75      4.6824896      9588392.4    
   2695900   300.07141     -494134.7       1549.7717     -421029.36      3.8418451      9586935.5    
   2696000   299.947       -493993.46      1588.1139     -420879.43      1.7593212      9588871.1    
   2696100   301.71585     -493895.7       1619.2826     -420328.71     -1.1293398      9592250.7    
   2696200   301.04463     -493508.43      1585.9366     -420134.84     -6.6610571      9597823.8    
   2696300   300.16466     -493484.6       1612.5871     -420294.2      -5.6739017      9599479.3    
   2696400   299.93809     -493625.25      1583.1889     -420518.27      3.3882958      9592850      
   2696500   300.58222     -493908.46      1596.6749     -420634.4       7.8912156      9587343.4    
   2696600   300.3683      -493919.38      1592.9408     -420700.06     -7.1241937      9591505.6    
   2696700   299.22025     -493627.99      1552.3639     -420723.02     -5.5084827      9596441.6    
   2696800   300.70311     -494046.12      1596.2029     -420743.71     -15.212341      9591947      
   2696900   299.90013     -494073.86      1570.9909     -420988.14      8.1218597      9583922.8    
   2697000   299.24059     -494344.19      1598.4194     -421388.31      3.1179454      9583060.8    
   2697100   299.02302     -494259.42      1510.7153     -421443.13      1.4150393      9582932.4    
   2697200   301.39603     -494446.03      1550.0409     -421024.54     -2.481144       9583130.2    
   2697300   300.84105     -494036.42      1548.793      -420748.53      2.5552705      9588690.6    
   2697400   298.75985     -493487.2       1517.7962     -420726.59     -6.8154385      9596761.7    
   2697500   299.63584     -493476.03      1516.7748     -420507.54     -1.4397791      9595940.5    
   2697600   301.61068     -493959.64      1622.9066     -420414.1       3.6669427      9588547      
   2697700   301.80623     -494521.13      1551.6349     -421000.23     -0.54953567     9585191.6    
   2697800   298.2249      -493819.85      1501.8612     -421202.73      10.765495      9587455.2    
   2697900   299.34657     -493936.78      1545.5942     -421008.46      6.7136282      9588248.3    
   2698000   299.89699     -493756.38      1548.5875     -420693.81      2.9217352      9589288.8    
   2698100   300.44918     -493675.64      1590.99       -420438.99      3.1191338      9593364.1    
   2698200   300.13392     -493630.25      1631.4624     -420428.3      -16.067714      9598019.8    
   2698300   299.19782     -493874.38      1595.5829     -420931.53     -8.7137974      9593787.2    
   2698400   297.41856     -493802.8       1593.294      -421286.53      22.023254      9583587.6    
   2698500   299.43413     -494263.12      1601.791      -421257.72      25.753839      9577330      
   2698600   300.22945     -494251.77      1552.7081     -421105.8       3.2992402      9585436.1    
   2698700   300.15037     -493700.71      1490.8931     -420635.42     -14.536754      9598274      
   2698800   300.07737     -493379.19      1541.3739     -420280.82     -7.8211517      9600100.4    
   2698900   299.53529     -493149.98      1540.6347     -420181.62      11.436905      9595776.4    
   2699000   301.27364     -493826.3       1561.6371     -420422.4       0.33606042     9592336.8    
   2699100   300.41022     -494093.48      1602.6308     -420854.48     -10.279529      9592216.9    
   2699200   298.60962     -493760.26      1633.8947     -420919.37      15.098461      9587362.7    
   2699300   300.83457     -494269.32      1565.16       -420966.59      8.8515177      9582882.9    
   2699400   299.14649     -494111.37      1596.5004     -421179.85      0.95596123     9586732.9    
   2699500   300.45064     -494552.05      1600.8752     -421305.17     -17.405188      9589077      
   2699600   300.72069     -494227.34      1569.2926     -420947.65      3.1162512      9587352.3    
   2699700   300.71157     -493923.11      1577.4545     -420637.42      6.2553408      9588780      
   2699800   299.95295     -493638.79      1544.914      -420566.55      4.6763327      9595480.4    
   2699900   299.56187     -493340.42      1530.4032     -420375.94     -8.9268108      9602526.3    
   2700000   300.93675     -493225.92      1578.7818     -419885.21     -3.4855265      9600457.9    
   2700100   301.08523     -493223.42      1566.46       -419859.62      13.221132      9597238.4    
   2700200   299.22643     -493181.27      1619.2763     -420207.92      6.9987387      9600508.7    
   2700300   299.03725     -493136.41      1540.3271     -420287.12     -8.7648896      9603649.3    
   2700400   300.57907     -493538.34      1590.3206     -420271.39     -0.95992051     9595833.4    
   2700500   301.09451     -493878.62      1563.972      -420515.1       10.774559      9587303.7    
   2700600   300.41009     -494142.72      1573.3766     -420933.01      8.5814775      9587123.3    
   2700700   298.84214     -493846.23      1556.7255     -421027.06     -4.8788874      9591964.6    
   2700800   299.41445     -494012.49      1579.1079     -421034.47     -5.4711236      9590081.4    
   2700900   300.53004     -494023.39      1547.1209     -420811.33      12.119215      9584930.7    
   2701000   299.88274     -493551.82      1602.9897     -420438.25      16.994581      9588918.8    
   2701100   299.68612     -493281.44      1596.7942     -420220.95     -6.4490168      9601494.7    
   2701200   300.33429     -493198.79      1560.4081     -420020.12     -14.370316      9604206.8    
   2701300   302.13553     -493315         1595.2953     -419671.92      12.080095      9596368.5    
   2701400   301.05637     -493473.84      1507.6232     -420175.77      12.254246      9594802.3    
   2701500   299.98718     -493653.67      1619.202      -420498.98     -12.475753      9598407.7    
   2701600   300.34073     -493875.25      1607.3002     -420648.15     -18.359532      9595525.9    
   2701700   300.93295     -494129.3       1535.8434     -420832.44      11.37083       9585209.3    
   2701800   299.28743     -494282.23      1581.0778     -421332.53      18.973945      9579964.7    
   2701900   299.17306     -494350.27      1538.8907     -421470.03      2.2124267      9583920.4    
   2702000   299.82516     -494337.57      1555.7735     -421284.94     -12.669584      9588720.6    
   2702100   300.00754     -494074.31      1640.9611     -420893        -1.3707084      9588757.3    
   2702200   300.502       -494017.32      1572.048      -420787.02      4.5161703      9588389      
   2702300   300.95398     -494137.1       1568.733      -420802.34     -3.4318377      9590058.7    
   2702400   299.02957     -493801.15      1616.1796     -420877.84      5.3944275      9591426.1    
   2702500   300.49699     -493959.09      1612.1851     -420689.84     -5.0643053      9592312.5    
   2702600   301.58555     -493776.04      1617.503      -420241.9       0.40279482     9591766.3    
   2702700   300.71208     -493649.36      1620.067      -420320.94     -3.2355787      9594010.2    
   2702800   299.53623     -493730.63      1550.3976     -420752.28     -5.6541181      9594646.8    
   2702900   299.56077     -493877.75      1582.0771     -420861.87     -4.8591907      9590157.3    
   2703000   301.16696     -494242.55      1595.61       -420830.12      1.201253       9584820      
   2703100   299.66941     -493939.07      1616.8452     -420862.51      3.6309211      9587436.2    
   2703200   299.4641      -493670.71      1569.5556     -420690.39     -0.10741762     9594387.2    
   2703300   301.09392     -493456.29      1581.8098     -420075.08     -1.7511761      9598604      
   2703400   300.39009     -493295.72      1570.0526     -420094.1      -0.88555228     9599333.6    
   2703500   300.12088     -493596.27      1577.5608     -420451.33     -8.3788528      9596590.1    
   2703600   300.91034     -494078.49      1595.9549     -420726.91     -7.4254455      9589416      
   2703700   300.23372     -494091.69      1571.0503     -420926.36      16.435891      9583684.5    
   2703800   298.93018     -493884.25      1600.2496     -421000.57      7.1042095      9587982.5    
   2703900   299.77491     -493933.52      1576.5086     -420872.14     -16.347996      9595095.3    
   2704000   299.79745     -493728.27      1619.164      -420618.86     -5.2738846      9596941.4    
   2704100   299.16791     -493372.59      1603.4735     -420428.99      7.6191604      9595651.2    
   2704200   300.29861     -493599.67      1601.7697     -420388.14      0.60049066     9595761.8    
   2704300   300.43671     -493699.14      1613.6569     -420442.8      -10.256013      9598155.5    
   2704400   299.33015     -493646.86      1545.0772     -420722.97     -2.4061685      9595681.7    
   2704500   300.22255     -494208.99      1526.8157     -421090.56     -3.7832644      9587787.5    
   2704600   299.32033     -494225.81      1589.9028     -421259.43      12.97756       9581434.8    
   2704700   298.89167     -494063.47      1569.8632     -421219.36      17.240864      9583393.5    
   2704800   300.25925     -493989.11      1599.337      -420789.41     -10.570296      9591049.2    
   2704900   300.99187     -493802.29      1597.4014     -420429.82     -10.532005      9594664.5    
   2705000   300.36744     -493685.49      1638.2852     -420421.04     -5.6364788      9595175.7    
   2705100   299.6408      -493735.71      1570.1724     -420712.65     -2.7608981      9592040.1    
   2705200   299.321       -494069.75      1572.8213     -421120.3       9.1163813      9583947      
   2705300   299.64312     -494116.43      1536.8808     -421126.11      21.175744      9581555.4    
   2705400   299.77001     -494091.28      1593.3677     -421014.2      -3.6887764      9590568.1    
   2705500   299.41068     -493755.11      1574.4578     -420782.63     -10.868398      9596829.4    
   2705600   301.04832     -493788.94      1628.7459     -420371.66     -12.281645      9595144      
   2705700   301.11638     -493651.87      1590.9146     -420256.2       6.3128229      9593301      
   2705800   300.29124     -493592.05      1577.6995     -420406.35     -7.2885946      9596450.2    
   2705900   298.35554     -493332.91      1594.5845     -420591.92      7.0241947      9594328.9    
   2706000   299.8995      -493878.2       1603.7965     -420759.82      11.724706      9588016.8    
   2706100   299.70197     -494330.4       1570.8018     -421292.12     -0.92844877     9584663.7    
   2706200   299.88894     -494583.51      1572.4339     -421499.02      4.4682704      9580035.5    
   2706300   299.96642     -494495.79      1570.2941     -421394.95      1.0117587      9581259      
   2706400   299.74589     -494340.72      1614.4782     -421248.29      0.38621751     9584284.5    
   2706500   301.25851     -494249.8       1561.4954     -420849.66      3.3958118      9584655.6    
   2706600   301.08058     -493815.31      1536.6841     -420482.41      5.3752774      9588506.3    
   2706700   300.93306     -493941.75      1516.1743     -420664.53     -12.469767      9594420.7    
   2706800   300.43978     -494081.53      1567.7053     -420870.41     -3.793858       9591083.1    
   2706900   300.42869     -494102.21      1546.2747     -420915.16      8.3270385      9585033.7    
   2707000   300.15036     -494235         1584.1632     -421076.43      7.2678369      9585515.2    
   2707100   299.68622     -494224.68      1592.4514     -421168.5      -5.1753387      9589764.2    
   2707200   299.94246     -493833.71      1517.7866     -420791.09      2.1155744      9591398.2    
   2707300   301.18348     -493838.61      1581.6647     -420436.18      1.5353618      9591185.1    
   2707400   301.076       -493883.45      1587.3255     -420501        -7.1978963      9594445      
   2707500   300.28505     -493988         1571.8315     -420809.64     -13.473052      9595460.4    
   2707600   299.84673     -494395.64      1654.1299     -421239.51     -9.701829       9587539.3    
   2707700   299.6615      -494457.16      1574.6202     -421424.71      20.071123      9575575.7    
   2707800   299.71866     -495006.77      1631.4461     -421903.86     -1.5677886      9575249.8    
   2707900   297.98767     -494909.28      1580.5108     -422270.09     -3.1633995      9578048      
   2708000   299.23998     -494708.02      1552.7751     -421797.93      1.894402       9575663.5    
   2708100   299.35023     -494296.44      1502.5518     -421410.29      21.202019      9575405.4    
   2708200   300.84773     -494492.37      1559.0225     -421192.65      2.6210609      9583672.5    
   2708300   300.04594     -493988.79      1568.9244     -420870.37     -23.477966      9595899.4    
   2708400   300.01537     -493545.7       1565.4634     -420438.02     -2.9568279      9597659.1    
   2708500   300.0049      -493444.63      1605.5385     -420299.38      5.5934571      9595796      
   2708600   299.79191     -493506.62      1639.7234     -420377.97      1.9938183      9596480.1    
   2708700   298.83899     -493462.38      1517.8802     -420682.81      7.6905572      9593876.2    
   2708800   299.34367     -494060.45      1564.8204     -421113.6       2.3630173      9586735.1    
   2708900   299.82159     -494188.44      1517.9131     -421174.52      13.482432      9581592.5    
   2709000   299.46906     -494164.37      1588.1272     -421164.31     -0.16786488     9584746.5    
   2709100   300.34952     -494054.74      1553.5242     -420879.32     -0.34966332     9588005.7    
   2709200   300.12159     -493440.57      1622.7311     -420250.29      7.2860919      9592746      
   2709300   299.9912      -493450.27      1560.6856     -420353.13     -10.190769      9598527.6    
   2709400   300.59646     -493772.8       1558.285      -420533.73     -13.800429      9596406.6    
   2709500   299.42949     -493794.32      1503.1827     -420888.63      13.518866      9586888.7    
   2709540   300.49161     -494294.11      1589.2036     -421049.13      3.5047828      9583729      
Loop time of 52175.8 on 12 procs for 2000000 steps with 80000 atoms

Performance: 66.238 ns/day, 0.362 hours/ns, 38.332 timesteps/s, 3.067 Matom-step/s
100.0% CPU use with 12 MPI tasks x 1 OpenMP threads

MPI task timing breakdown:
Section |  min time  |  avg time  |  max time  |%varavg| %total
---------------------------------------------------------------
Pair    | 9949.1     | 10474      | 11046      | 270.3 | 20.07
Bond    | 42.93      | 52.429     | 60.55      |  76.7 |  0.10
Kspace  | 6259.2     | 6839.9     | 7377.9     | 341.2 | 13.11
Neigh   | 27097      | 27204      | 27270      |  25.7 | 52.14
Comm    | 5756.8     | 5812.6     | 5912.7     |  52.3 | 11.14
Output  | 4.8587     | 5.3768     | 6.2981     |  16.3 |  0.01
Modify  | 1362.8     | 1387.1     | 1444       |  73.6 |  2.66
Other   |            | 400.4      |            |       |  0.77

Nlocal:        6666.67 ave        6696 max        6641 min
Histogram: 2 2 0 1 2 0 2 0 2 1
Nghost:        6954.67 ave        6978 max        6934 min
Histogram: 2 0 2 0 2 2 1 2 0 1
Neighs:         209290 ave      211893 max      206422 min
Histogram: 3 1 0 0 1 2 1 1 0 3

Total # of neighbors = 2511481
Ave neighs/atom = 31.393512
Ave special neighs/atom = 0.15
Neighbor list builds = 2000000
Dangerous builds = 2000000

write_data end.data
System init for write_data ...
PPPM initialization ...
  using 12-bit tables for long-range coulomb (src/kspace.cpp:342)
  G vector (1/distance) = 0.087790598
  grid = 15 15 15
  stencil order = 4
  estimated absolute RMS force accuracy = 0.0025538783
  estimated relative force accuracy = 7.6909287e-06
  using double precision KISS FFT
  3d grid and FFT values/proc = 1440 450
Generated 0 of 6 mixed pair_coeff terms from geometric mixing rule
Total wall time: 19:34:33
