

units 		          lj
dimension	          3
boundary	          p p p
neighbor	          0.3 bin
neigh_modify        every 1 check yes

atom_style	        mdpd


#region     mdpd     block -25 25 -25 25 0 ${WaveLength} units box
#create_box          1 mdpd

#lattice             fcc 7.7
#region     tube     cylinder z 0 0 v_Radius INF INF
#create_atoms        1 region tube

read_data           initial_perturbed_14_50.data
Reading data file ...
  orthogonal box = (-42 -42 0) to (42 42 154.32385)
  2 by 2 by 3 MPI processor grid
  reading atoms ...
  704483 atoms
  read_data CPU = 1.164 seconds


pair_style          hybrid/overlay mdpd/rhosum mdpd 1.0 1.0 12112022
pair_coeff          1 1 mdpd/rhosum  0.75
pair_coeff          1 1 mdpd         -50 25 18.0 1.0 0.75
mass                1 1

compute             mythermo all temp
thermo              500
thermo_modify       temp mythermo
thermo_modify       flush yes


velocity            all create 1.0 2093 loop local dist gaussian
comm_modify         vel yes
fix         mvv     all mvv/dpd 0.65

timestep            0.01

dump        mydump  all atom 100 thread_14_50_2.lammpstrj
dump_modify mydump scale no

dump force all custom 100 dump.force_14_50_2 id fx fy fz
dump vel all custom 100 dump.vel_14_50_2 id vx vy vz
#dump full all custom 100 dump.all id x y z vx vy vz fx fy fz

run                 60000

CITE-CITE-CITE-CITE-CITE-CITE-CITE-CITE-CITE-CITE-CITE-CITE-CITE

Your simulation uses code contributions which should be cited:

- pair mdpd command:

@Article{ZLi2013_POF,
 author = {Li, Z. and Hu, G.H. and Wang, Z.L. and Ma Y.B. and Zhou, Z.W.},
 title = {Three dimensional flow structures in a moving droplet on substrate: a dissipative particle dynamics study},
 journal = {Physics of Fluids},
 year = {2013},
 volume = {25},
 pages = {072103}
}

CITE-CITE-CITE-CITE-CITE-CITE-CITE-CITE-CITE-CITE-CITE-CITE-CITE

Generated 0 of 0 mixed pair_coeff terms from geometric mixing rule
Neighbor list info ...
  update every 1 steps, delay 10 steps, check yes
  max neighbors/atom: 2000, page size: 100000
  master list distance cutoff = 1.3
  ghost atom cutoff = 1.3
  binsize = 0.65, bins = 130 130 238
  2 neighbor lists, perpetual/occasional/extra = 2 0 0
  (1) pair mdpd/rhosum, perpetual
      attributes: full, newton on
      pair build: full/bin/atomonly
      stencil: full/bin/3d
      bin: standard
  (2) pair mdpd, perpetual, half/full from (1)
      attributes: half, newton on
      pair build: halffull/newton
      stencil: none
      bin: none
Per MPI rank memory allocation (min/avg/max) = 56.24 | 63.74 | 67.72 Mbytes
   Step          Temp          E_pair         E_mol          TotEng         Press     
         0   1             -6.1714723      0             -4.6714745      3.4245813    
       500   0.98692223    -8.3052972      0             -6.824916       1.3474947    
      1000   0.98750851    -8.8270563      0             -7.3457956      0.70891419   
      1500   0.98546715    -9.1473571      0             -7.6691585      0.30022028   
      2000   0.9828386     -9.2972751      0             -7.8230193      0.082629977  
      2500   0.98140366    -9.3527144      0             -7.880611       0.03543905   
      3000   0.98019284    -9.3706942      0             -7.900407       0.010789215  
      3500   0.9794669     -9.3760792      0             -7.9068809     -0.0051808494 
      4000   0.9783526     -9.3873208      0             -7.919794      -0.012982014  
      4500   0.97939105    -9.3898041      0             -7.9207196     -0.035514969  
      5000   0.97792438    -9.4120421      0             -7.9451576     -0.059234277  
      5500   0.9773695     -9.4213202      0             -7.955268      -0.09066434   
      6000   0.97743675    -9.4478199      0             -7.9816669     -0.12263987   
      6500   0.97903187    -9.4614609      0             -7.9929152     -0.10962068   
      7000   0.97835752    -9.467241       0             -7.9997068     -0.15166018   
      7500   0.97810463    -9.4464856      0             -7.9793307     -0.12800476   
      8000   0.97713007    -9.4440438      0             -7.9783508     -0.11922342   
      8500   0.97762567    -9.4388487      0             -7.9724123     -0.090942558  
      9000   0.97674867    -9.4383596      0             -7.9732387     -0.086594902  
      9500   0.97679203    -9.4288985      0             -7.9637125     -0.10078059   
     10000   0.97596592    -9.4236322      0             -7.9596854     -0.096223981  
     10500   0.97613033    -9.414005       0             -7.9498116     -0.061770888  
     11000   0.97763932    -9.4255707      0             -7.9591138     -0.076803069  
     11500   0.97691121    -9.4125452      0             -7.9471805     -0.081905215  
     12000   0.97576479    -9.4188881      0             -7.955243      -0.089506006  
     12500   0.9783727     -9.4189295      0             -7.9513726     -0.088316722  
     13000   0.97575279    -9.4236845      0             -7.9600573     -0.088617092  
     13500   0.97672705    -9.4208403      0             -7.9557518     -0.069318976  
     14000   0.97608033    -9.4239538      0             -7.9598354     -0.08417023   
     14500   0.97917223    -9.428742       0             -7.9599858     -0.081216625  
     15000   0.97754004    -9.4255237      0             -7.9592157     -0.10265072   
     15500   0.97568266    -9.4258571      0             -7.9623352     -0.093591454  
     16000   0.97679445    -9.4258269      0             -7.9606373     -0.08666144   
     16500   0.97744506    -9.4291272      0             -7.9629617     -0.080944038  
     17000   0.97907848    -9.418175       0             -7.9495594     -0.063689638  
     17500   0.97647955    -9.4096069      0             -7.9448896     -0.071206805  
     18000   0.97529795    -9.4047471      0             -7.9418023     -0.082849753  
     18500   0.97648193    -9.4084904      0             -7.9437696     -0.036315275  
     19000   0.97818989    -9.4149726      0             -7.9476899     -0.080910471  
     19500   0.97732016    -9.4227323      0             -7.9567541     -0.065739115  
     20000   0.97806548    -9.4214474      0             -7.9543512     -0.093702452  
     20500   0.97693427    -9.4315229      0             -7.9661236     -0.08297003   
     21000   0.97650218    -9.4271886      0             -7.9624374     -0.083737748  
     21500   0.97727075    -9.4303637      0             -7.9644596     -0.072789087  
     22000   0.97626471    -9.4259274      0             -7.9615324     -0.086238935  
     22500   0.97635862    -9.4242593      0             -7.9597235     -0.085057949  
     23000   0.97575565    -9.4132682      0             -7.9496368     -0.082232073  
     23500   0.97649034    -9.4126632      0             -7.9479297     -0.061191986  
     24000   0.97839586    -9.4205936      0             -7.9530019     -0.06564396   
     24500   0.97870221    -9.4165703      0             -7.948519      -0.066802956  
     25000   0.97735737    -9.4275757      0             -7.9615417     -0.084407183  
     25500   0.97817166    -9.4261611      0             -7.9589057     -0.077088476  
     26000   0.97906534    -9.42368        0             -7.9550841     -0.073733845  
     26500   0.97680382    -9.4234899      0             -7.9582863     -0.089669416  
     27000   0.97664342    -9.4197663      0             -7.9548032     -0.067309159  
     27500   0.97958001    -9.4199551      0             -7.9505871     -0.093417172  
     28000   0.97852495    -9.4110888      0             -7.9433035     -0.054246447  
     28500   0.97990396    -9.4162376      0             -7.9463838     -0.088953745  
     29000   0.97716085    -9.4220855      0             -7.9563464     -0.079512286  
     29500   0.97774632    -9.4242542      0             -7.9576368     -0.081851565  
     30000   0.97864946    -9.4234748      0             -7.9555027     -0.074115049  
     30500   0.97871063    -9.4113444      0             -7.9432805     -0.069177561  
     31000   0.97992926    -9.4220726      0             -7.9521808     -0.07213706   
     31500   0.97835536    -9.4161021      0             -7.9485712     -0.074876287  
     32000   0.97927627    -9.4233407      0             -7.9544284     -0.084959963  
     32500   0.97945812    -9.4298903      0             -7.9607052     -0.09418987   
     33000   0.98024812    -9.4224923      0             -7.9521223     -0.074599924  
     33500   0.98021167    -9.4160602      0             -7.9457448     -0.065753077  
     34000   0.98083368    -9.4140074      0             -7.942759      -0.054129193  
     34500   0.97863437    -9.4251917      0             -7.9572423     -0.082592765  
     35000   0.9793051     -9.41597        0             -7.9470144     -0.067496281  
     35500   0.98066798    -9.4163214      0             -7.9453215     -0.074589089  
     36000   0.9810852     -9.4175264      0             -7.9459007     -0.057709695  
     36500   0.98098059    -9.4195674      0             -7.9480986     -0.065048083  
     37000   0.97990065    -9.4339544      0             -7.9641055     -0.077188483  
     37500   0.9813126     -9.4260972      0             -7.9541304     -0.063555251  
     38000   0.98096908    -9.4117752      0             -7.9403237     -0.058900781  
     38500   0.98228322    -9.417889       0             -7.9444663     -0.055528004  
     39000   0.98116635    -9.4283286      0             -7.9565812     -0.086069612  
     39500   0.98163861    -9.4250878      0             -7.952632      -0.061345133  
     40000   0.98239641    -9.4157649      0             -7.9421724     -0.07035783   
     40500   0.98223416    -9.4164211      0             -7.9430719     -0.063276686  
     41000   0.98336214    -9.4287374      0             -7.9536963     -0.087414264  
     41500   0.98134496    -9.4226738      0             -7.9506584     -0.077854242  
     42000   0.98137479    -9.4139242      0             -7.9418642     -0.035610853  
     42500   0.98429789    -9.4269541      0             -7.9505094     -0.075981824  
     43000   0.98313416    -9.429415       0             -7.9547159     -0.060368425  
     43500   0.98142398    -9.4175275      0             -7.9453937     -0.060739026  
     44000   0.98260627    -9.4251909      0             -7.9512836     -0.054147637  
     44500   0.9823399     -9.4274888      0             -7.953981      -0.064756319  
     45000   0.98233681    -9.4184128      0             -7.9449096     -0.055937702  
     45500   0.98426894    -9.4209799      0             -7.9445786     -0.052424287  
     46000   0.98254478    -9.4322033      0             -7.9583882     -0.058544844  
     46500   0.98196071    -9.4173471      0             -7.9444081     -0.052376294  
     47000   0.98141672    -9.4238031      0             -7.9516801     -0.041783738  
     47500   0.98066585    -9.4301345      0             -7.9591378     -0.057156445  
     48000   0.98165246    -9.4185985      0             -7.9461219     -0.055875221  
     48500   0.97937128    -9.4228379      0             -7.953783      -0.040294563  
     49000   0.98128626    -9.4226526      0             -7.9507253     -0.070267487  
     49500   0.97987075    -9.4233897      0             -7.9535856     -0.054378509  
     50000   0.98022328    -9.4251228      0             -7.95479       -0.061946097  
     50500   0.98114401    -9.4202192      0             -7.9485052     -0.050525752  
     51000   0.98046378    -9.4345731      0             -7.9638795     -0.079528597  
     51500   0.98100879    -9.4182179      0             -7.9467068     -0.030977909  
     52000   0.98080065    -9.429855       0             -7.9586561     -0.070799975  
     52500   0.97934452    -9.4302738      0             -7.9612591     -0.058912026  
     53000   0.97752479    -9.4333057      0             -7.9670206     -0.068641417  
     53500   0.97794929    -9.4239754      0             -7.9570536     -0.035666936  
     54000   0.97752748    -9.4343681      0             -7.968079      -0.071975171  
     54500   0.97632083    -9.4269408      0             -7.9624616     -0.067844718  
     55000   0.97602354    -9.4223617      0             -7.9583285     -0.044539274  
     55500   0.9761115     -9.4346425      0             -7.9704773     -0.057096513  
     56000   0.97711061    -9.430322       0             -7.9646582     -0.063140419  
     56500   0.97626378    -9.4314294      0             -7.9670358     -0.069536089  
     57000   0.97734911    -9.4271754      0             -7.9611538     -0.055066281  
     57500   0.97751874    -9.422532       0             -7.956256      -0.059343084  
     58000   0.97507295    -9.4381589      0             -7.9755516     -0.072463072  
     58500   0.97611632    -9.429517       0             -7.9653446     -0.045230401  
     59000   0.97899986    -9.4316493      0             -7.9631516     -0.053147341  
     59500   0.97611377    -9.4346267      0             -7.9704581     -0.060117099  
     60000   0.97818962    -9.4313272      0             -7.9640448     -0.063053802  
Loop time of 13425 on 12 procs for 60000 steps with 704483 atoms

Performance: 3861.439 tau/day, 4.469 timesteps/s
99.9% CPU use with 12 MPI tasks x 1 OpenMP threads

MPI task timing breakdown:
Section |  min time  |  avg time  |  max time  |%varavg| %total
---------------------------------------------------------------
Pair    | 5338.7     | 7716.7     | 9105.4     |1871.3 | 57.48
Neigh   | 536.24     | 1248.9     | 1644.1     |1403.4 |  9.30
Comm    | 1546       | 2840.2     | 4855.1     |2641.2 | 21.16
Output  | 257.51     | 276.01     | 309.11     | 127.1 |  2.06
Modify  | 234.11     | 572.48     | 760.06     | 936.4 |  4.26
Other   |            | 770.8      |            |       |  5.74

Nlocal:        58706.9 ave       88624 max        3228 min
Histogram: 4 0 0 0 0 0 0 0 0 8
Nghost:        12993.5 ave       18789 max        1926 min
Histogram: 4 0 0 0 0 0 0 0 0 8
Neighs:    1.79954e+06 ave 2.75653e+06 max       92129 min
Histogram: 4 0 0 0 0 0 0 0 0 8
FullNghs:  3.59907e+06 ave  5.4405e+06 max      184314 min
Histogram: 4 0 0 0 0 0 0 0 0 8

Total # of neighbors = 43188898
Ave neighs/atom = 61.305806
Neighbor list builds = 6000
Dangerous builds = 6000
Total wall time: 3:43:46
