

units 		          lj
dimension	          3
boundary	          p p p
neighbor	          0.3 bin
neigh_modify        every 1 check yes

atom_style	        mdpd


#region     mdpd     block -25 25 -25 25 0 ${WaveLength} units box
#create_box          1 mdpd

#lattice             fcc 7.7
#region     tube     cylinder z 0 0 v_Radius INF INF
#create_atoms        1 region tube

read_data           initial_perturbed_14_90.data
Reading data file ...
  orthogonal box = (-42.000000 -42.000000 0.0000000) to (42.000000 42.000000 229.67257)
  2 by 2 by 4 MPI processor grid
  reading atoms ...
  1475305 atoms
  read_data CPU = 1.614 seconds


pair_style          hybrid/overlay mdpd/rhosum mdpd 1.0 1.0 9872598
pair_coeff          1 1 mdpd/rhosum  0.75
pair_coeff          1 1 mdpd         -90 25 18.0 1.0 0.75
mass                1 1

compute             mythermo all temp
thermo              500
thermo_modify       temp mythermo
thermo_modify       flush yes


velocity            all create 1.0 2093 loop local dist gaussian
comm_modify         vel yes
fix         mvv     all mvv/dpd 0.65

timestep            0.01

dump        mydump  all atom 1000 thread_14_90.lammpstrj
dump_modify mydump scale no

dump force all custom 1000 dump.force_14_90 id fx fy fz
dump vel all custom 1000 dump.vel_14_90 id vx vy vz
#dump full all custom 100 dump.all id x y z vx vy vz fx fy fz

run                 1000000
Neighbor list info ...
  update every 1 steps, delay 10 steps, check yes
  max neighbors/atom: 2000, page size: 100000
  master list distance cutoff = 1.3
  ghost atom cutoff = 1.3
  binsize = 0.65, bins = 130 130 354
  2 neighbor lists, perpetual/occasional/extra = 2 0 0
  (1) pair mdpd/rhosum, perpetual
      attributes: full, newton on
      pair build: full/bin/atomonly
      stencil: full/bin/3d
      bin: standard
  (2) pair mdpd, perpetual, half/full from (1)
      attributes: half, newton on
      pair build: halffull/newton
      stencil: none
      bin: none
Per MPI rank memory allocation (min/avg/max) = 100.7 | 111.8 | 122.9 Mbytes
Step Temp E_pair E_mol TotEng Press 
       0            1   -18.217939            0    -16.71794    1.6829086 
     500   0.95959269   -19.516526            0   -18.077138   -0.0258964 
    1000   0.95806812   -19.724979            0   -18.287878  -0.39094351 
    1500   0.95922011   -19.548528            0   -18.109699  -0.13681585 
    2000   0.95878004   -19.601298            0   -18.163129   -0.2169327 
    2500   0.95647558   -19.665311            0   -18.230598  -0.31901309 
    3000   0.95763116   -19.618039            0   -18.181593  -0.23484015 
    3500   0.95732043   -19.602887            0   -18.166907  -0.22666634 
    4000   0.95827951    -19.63254            0   -18.195122  -0.24607722 
    4500   0.95753336   -19.643577            0   -18.207278  -0.27962617 
    5000   0.95913908   -19.651361            0   -18.212653  -0.24488606 
    5500   0.95683972   -19.667592            0   -18.232333  -0.23458785 
    6000   0.95775699   -19.682876            0   -18.246241  -0.27362026 
    6500   0.95683686   -19.703291            0   -18.268037  -0.24655806 
    7000   0.95724102   -19.720368            0   -18.284507  -0.24346198 
    7500     0.958233   -19.741131            0   -18.303782  -0.24031604 
    8000   0.95644075   -19.775126            0   -18.340466  -0.25035321 
    8500   0.95757105   -19.812407            0   -18.376051  -0.26567013 
    9000   0.95778539   -19.840833            0   -18.404156  -0.23547187 
    9500    0.9581228   -19.891997            0   -18.454814   -0.2514376 
   10000   0.95718279   -19.949104            0    -18.51333  -0.25589578 
   10500   0.95669447   -19.991328            0   -18.556287  -0.24529035 
   11000   0.95732121   -20.050998            0   -18.615017  -0.24098849 
   11500   0.95750618   -20.092619            0   -18.656361  -0.23068394 
   12000   0.95804008   -20.162336            0   -18.725277  -0.24551187 
   12500   0.95905019    -20.23213            0   -18.793556  -0.25622939 
   13000   0.95851132   -20.296656            0    -18.85889  -0.23933361 
   13500   0.95801136   -20.353865            0   -18.916849  -0.22523528 
   14000   0.95806646   -20.428632            0   -18.991533  -0.23290205 
   14500     0.958263    -20.49108            0   -19.053687  -0.23163332 
   15000   0.95793996   -20.574132            0   -19.137223   -0.2441568 
   15500   0.95705789   -20.646109            0   -19.210523  -0.26274013 
   16000   0.95770984     -20.7032            0   -19.266636  -0.25110596 
   16500   0.95767849   -20.776634            0   -19.340117  -0.26292853 
   17000   0.95771882   -20.828536            0   -19.391959  -0.24858045 
   17500   0.95751282   -20.902613            0   -19.466345  -0.26826759 
   18000   0.95600132   -20.965521            0    -19.53152  -0.24241891 
   18500   0.95811294   -21.032752            0   -19.595584   -0.2682479 
   19000   0.95741024   -21.077132            0   -19.641017  -0.24513527 
   19500    0.9565919   -21.131141            0   -19.696255  -0.24145864 
   20000   0.95758223   -21.177893            0   -19.741521  -0.26536649 
   20500   0.95691149    -21.23218            0   -19.796814  -0.27706239 
   21000   0.95628392   -21.270417            0   -19.835992  -0.25188088 
   21500   0.95801879   -21.301256            0   -19.864229  -0.25231077 
   22000   0.95689318   -21.338959            0    -19.90362  -0.25613936 
   22500   0.95802919   -21.359945            0   -19.922902  -0.23102289 
   23000   0.95741325   -21.384736            0   -19.948617   -0.2714818 
   23500   0.95602312    -21.41446            0   -19.980426  -0.27089865 
   24000   0.95668215    -21.42608            0   -19.991058  -0.25974963 
   24500   0.95655829   -21.434792            0   -19.999956  -0.26570885 
   25000    0.9568762   -21.448687            0   -20.013374  -0.25091953 
   25500   0.95665396   -21.461613            0   -20.026633  -0.25697004 
   26000   0.95694094   -21.450229            0   -20.014819  -0.23434587 
   26500    0.9567898   -21.456662            0   -20.021478  -0.25356792 
   27000    0.9561041    -21.47107            0   -20.036915  -0.26152069 
   27500   0.95694492   -21.467337            0    -20.03192  -0.26748771 
   28000   0.95767168   -21.464913            0   -20.028407  -0.24060255 
   28500    0.9565303   -21.466084            0   -20.031289  -0.24367225 
   29000   0.95697785   -21.471293            0   -20.035827  -0.26573438 
   29500   0.95662534   -21.463865            0   -20.028928  -0.24383535 
   30000   0.95631508   -21.459099            0   -20.024628  -0.24382592 
   30500   0.95657838   -21.471976            0    -20.03711   -0.2742697 
   31000   0.95648927   -21.479974            0   -20.045241  -0.26663256 
   31500   0.95719341   -21.476803            0   -20.041014  -0.26449886 
   32000    0.9580242   -21.476658            0   -20.039623  -0.24150233 
   32500    0.9571619    -21.48491            0   -20.049168    -0.255816 
   33000   0.95803702   -21.488722            0   -20.051667  -0.27331915 
   33500   0.95636786   -21.487034            0   -20.052484  -0.25370299 
   34000   0.95550485   -21.484519            0   -20.051263  -0.27073866 
   34500   0.95745896   -21.476218            0   -20.040031  -0.25666775 
   35000   0.95675247   -21.485327            0   -20.050199  -0.26572573 
   35500   0.95559243   -21.485002            0   -20.051615  -0.26503521 
   36000   0.95673569   -21.491408            0   -20.056306  -0.26557085 
   36500    0.9566746    -21.48677            0   -20.051759  -0.26122796 
   37000   0.95727875   -21.497177            0    -20.06126  -0.27833399 
   37500   0.95671992   -21.503164            0   -20.068085   -0.2710648 
   38000   0.95672073   -21.493794            0   -20.058714  -0.23947412 
   38500    0.9567304   -21.502813            0   -20.067719   -0.2665814 
   39000    0.9568797   -21.504484            0   -20.069165  -0.26535772 
   39500   0.95679594   -21.501552            0   -20.066359  -0.26672005 
   40000   0.95752947   -21.493459            0   -20.057166  -0.23875018 
   40500   0.95668053   -21.479844            0   -20.044824  -0.24724728 
   41000   0.95695169   -21.503078            0   -20.067651  -0.24200735 
   41500   0.95599993   -21.505951            0   -20.071952   -0.2609679 
   42000   0.95684471   -21.502653            0   -20.067387  -0.27151109 
   42500   0.95789831   -21.506413            0   -20.069567  -0.28520776 
   43000   0.95708872   -21.502075            0   -20.066443  -0.24435695 
   43500   0.95657742   -21.506525            0    -20.07166   -0.2328393 
   44000   0.95689916   -21.499811            0   -20.064463  -0.25263003 
   44500   0.95811643   -21.500841            0   -20.063667   -0.2413065 
   45000    0.9568579    -21.52125            0   -20.085964  -0.25050451 
   45500   0.95690231   -21.522632            0    -20.08728  -0.26793466 
   46000   0.95718722   -21.514392            0   -20.078612  -0.26747784 
   46500   0.95776146   -21.515529            0   -20.078888  -0.26253807 
   47000   0.95648481   -21.518188            0   -20.083462  -0.25566082 
   47500   0.95677903   -21.518438            0    -20.08327  -0.24862193 
   48000   0.95678922   -21.512445            0   -20.077262  -0.26236081 
   48500   0.95631182   -21.516872            0   -20.082406  -0.25201347 
   49000    0.9561154   -21.504393            0    -20.07022   -0.2557888 
   49500    0.9567107   -21.519551            0   -20.084486  -0.27794531 
   50000   0.95789548   -21.510602            0    -20.07376  -0.22818578 
   50500   0.95743449   -21.512481            0    -20.07633  -0.26155427 
   51000   0.95782996   -21.513657            0   -20.076913  -0.25054457 
   51500   0.95685053   -21.507087            0   -20.071812  -0.24863312 
   52000   0.95694843   -21.513512            0    -20.07809  -0.26420511 
   52500   0.95616357   -21.507898            0   -20.073654  -0.24303922 
   53000   0.95643148   -21.514807            0    -20.08016  -0.26192938 
   53500   0.95691195   -21.505995            0   -20.070628  -0.24997849 
   54000   0.95712067   -21.509874            0   -20.074194  -0.25943063 
   54500   0.95680789   -21.510149            0   -20.074938  -0.24629582 
   55000    0.9572382   -21.518322            0   -20.082465  -0.26941775 
   55500   0.95789615    -21.51878            0   -20.081937  -0.28261625 
   56000   0.95821022   -21.512447            0   -20.075133  -0.25419401 
   56500   0.95688853   -21.527944            0   -20.092612  -0.28861948 
   57000   0.95775331   -21.517658            0   -20.081029  -0.25684306 
   57500   0.95638102   -21.525245            0   -20.090674  -0.26029237 
   58000   0.95663838   -21.515538            0   -20.080582  -0.25915953 
   58500   0.95688636   -21.502044            0   -20.066716  -0.24953376 
   59000   0.95727946   -21.520651            0   -20.084733   -0.2694852 
   59500   0.95870699   -21.522313            0   -20.084253  -0.25966484 
   60000   0.95695923   -21.525232            0   -20.089795  -0.28745933 
   60500   0.95760414   -21.520816            0   -20.084411  -0.22996214 
   61000    0.9567149    -21.52333            0   -20.088258  -0.24458483 
   61500   0.95637183   -21.506867            0    -20.07231  -0.24058769 
   62000   0.95749219   -21.526918            0    -20.09068  -0.27216242 
   62500   0.95575752   -21.521574            0   -20.087939  -0.23675096 
   63000   0.95607197   -21.531968            0   -20.097861  -0.28378827 
   63500   0.95645349   -21.516121            0   -20.081442  -0.27667836 
   64000   0.95669499   -21.517674            0   -20.082632  -0.27154821 
   64500    0.9571178   -21.524516            0   -20.088841  -0.29305981 
   65000   0.95726408   -21.529282            0   -20.093387  -0.28368574 
   65500   0.95628176   -21.531163            0   -20.096742   -0.2813582 
   66000   0.95794991    -21.52778            0   -20.090856  -0.25356697 
   66500   0.95703888   -21.527552            0   -20.091994  -0.28057395 
   67000   0.95680067   -21.525575            0   -20.090375  -0.27999584 
   67500   0.95705882    -21.51484            0   -20.079253  -0.24216986 
   68000   0.95700617   -21.530903            0   -20.095395  -0.25868847 
   68500   0.95592661   -21.529906            0   -20.096017  -0.27786898 
   69000   0.95780062   -21.522183            0   -20.085483  -0.25364127 
   69500   0.95728137   -21.518126            0   -20.082205  -0.22932533 
   70000   0.95675949   -21.522793            0   -20.087654  -0.24429641 
   70500   0.95695771   -21.526344            0   -20.090908  -0.25446144 
   71000   0.95693172   -21.518237            0    -20.08284  -0.23228126 
   71500   0.95657691   -21.508476            0   -20.073611   -0.2486167 
   72000   0.95733648   -21.512489            0   -20.076485  -0.22998881 
   72500   0.95641495   -21.528101            0   -20.093479  -0.26624455 
   73000   0.95690127   -21.527056            0   -20.091706  -0.26487337 
   73500   0.95667731   -21.521644            0   -20.086629  -0.24944392 
   74000   0.95521061   -21.517104            0   -20.084289  -0.26605323 
   74500   0.95708871   -21.519912            0    -20.08428  -0.25230358 
   75000   0.95741366   -21.528702            0   -20.092582  -0.24848601 
   75500   0.95561665   -21.523071            0   -20.089647  -0.25862006 
   76000   0.95769453   -21.529623            0   -20.093082  -0.27764535 
   76500    0.9560306   -21.520246            0   -20.086201  -0.24886186 
   77000   0.95764835   -21.524618            0   -20.088146   -0.2598099 
   77500   0.95682873   -21.529276            0   -20.094034  -0.26260834 
   78000   0.95625596   -21.528647            0   -20.094264   -0.2867648 
   78500   0.95694418   -21.530597            0   -20.095182  -0.25122987 
   79000   0.95688439   -21.530014            0   -20.094688  -0.25210584 
   79500   0.95654626   -21.530106            0   -20.095287  -0.27278783 
   80000   0.95727659   -21.528867            0   -20.092953  -0.26308496 
   80500   0.95828425   -21.541352            0   -20.103927  -0.27039237 
   81000    0.9567594   -21.523461            0   -20.088323  -0.24649423 
   81500   0.95649406   -21.512886            0   -20.078146  -0.24949097 
   82000   0.95732203   -21.520458            0   -20.084475  -0.25751956 
   82500   0.95731171   -21.523583            0   -20.087617  -0.25332102 
   83000   0.95740424   -21.521895            0    -20.08579  -0.26183765 
   83500   0.95674246   -21.537482            0   -20.102369  -0.23918284 
   84000   0.95766856   -21.528882            0    -20.09238  -0.26068278 
   84500   0.95729322   -21.520984            0   -20.085046  -0.26124502 
   85000     0.957636   -21.533729            0   -20.097276  -0.28762685 
   85500   0.95705209   -21.519791            0   -20.084214  -0.27747834 
   86000   0.95600918   -21.529683            0    -20.09567  -0.23148735 
   86500   0.95645946   -21.516822            0   -20.082134  -0.24233496 
   87000   0.95726479   -21.524789            0   -20.088893  -0.24228619 
   87500   0.95686773    -21.52899            0   -20.093689  -0.25573488 
   88000   0.95797816   -21.529841            0   -20.092875  -0.24966558 
   88500   0.95713925     -21.5298            0   -20.094092  -0.25291031 
   89000   0.95724086   -21.523171            0   -20.087311  -0.26096904 
   89500   0.95841516    -21.52839            0   -20.090769  -0.27494437 
   90000   0.95614286   -21.523972            0   -20.089758  -0.22660007 
   90500   0.95739362   -21.521755            0   -20.085666  -0.26366021 
   91000   0.95516814   -21.533183            0   -20.100432  -0.28363999 
   91500   0.95783711   -21.532746            0   -20.095991  -0.26972564 
   92000   0.95558497   -21.523918            0   -20.090542  -0.25087397 
   92500   0.95651024     -21.5237            0   -20.088936   -0.2474124 
   93000   0.95624691   -21.526752            0   -20.092383  -0.27402586 
   93500   0.95660647   -21.528071            0   -20.093162  -0.24566707 
   94000   0.95676839   -21.520925            0   -20.085773  -0.25199284 
   94500   0.95628881   -21.527244            0   -20.092812  -0.24006947 
   95000   0.95751401   -21.530126            0   -20.093856  -0.25037087 
   95500   0.95712917   -21.528526            0   -20.092833  -0.27358779 
   96000   0.95665645   -21.529449            0   -20.094466  -0.26328914 
   96500   0.95630159   -21.533721            0    -20.09927  -0.27036848 
   97000   0.95686063   -21.519813            0   -20.084523  -0.27228706 
   97500   0.95699232   -21.523721            0   -20.088233  -0.27982274 
   98000   0.95653132    -21.53316            0   -20.098364  -0.25346485 
   98500   0.95637538   -21.524942            0    -20.09038  -0.25580828 
   99000   0.95690285   -21.526771            0   -20.091418  -0.23234183 
   99500   0.95696737   -21.531527            0   -20.096077   -0.2594004 
  100000   0.95545907   -21.536067            0    -20.10288  -0.26027828 
  100500   0.95717733   -21.534469            0   -20.098704  -0.28014505 
  101000   0.95661192   -21.531203            0   -20.096286  -0.27448662 
  101500   0.95776952   -21.535847            0   -20.099194  -0.30855199 
  102000   0.95693185   -21.535775            0   -20.100378   -0.2719546 
  102500   0.95753375   -21.540991            0   -20.104692  -0.23723158 
  103000   0.95760712   -21.521033            0   -20.084623  -0.24108395 
  103500   0.95655238   -21.530481            0   -20.095654  -0.25769184 
  104000   0.95627972   -21.530468            0   -20.096049  -0.25383593 
  104500   0.95554943   -21.529038            0   -20.095715  -0.26083354 
  105000   0.95619356    -21.53957            0   -20.105281    -0.251284 
  105500   0.95791026   -21.536587            0   -20.099723  -0.25947232 
  106000   0.95779147   -21.535102            0   -20.098416  -0.27385225 
  106500   0.95772633   -21.532243            0   -20.095655  -0.23053715 
  107000   0.95628692   -21.538699            0   -20.104269  -0.28866326 
  107500   0.95638422   -21.533366            0   -20.098791  -0.25292828 
  108000    0.9562025   -21.529413            0   -20.095111   -0.2656631 
  108500   0.95651664   -21.534476            0   -20.099702  -0.27292966 
  109000   0.95690032   -21.522207            0   -20.086858  -0.23218897 
  109500   0.95698101   -21.529905            0   -20.094434  -0.25564097 
  110000   0.95699334   -21.530891            0   -20.095402  -0.26374373 
  110500   0.95737372   -21.536932            0   -20.100872   -0.2916343 
  111000    0.9574291   -21.516123            0    -20.07998  -0.24603379 
  111500   0.95721869   -21.525705            0   -20.089878  -0.24366724 
  112000   0.95718147    -21.53117            0   -20.095399  -0.24968745 
  112500   0.95623116   -21.525367            0   -20.091022  -0.24044514 
  113000   0.95634425   -21.531139            0   -20.096624  -0.25680496 
  113500   0.95697501   -21.535124            0   -20.099663  -0.25645893 
  114000   0.95749669   -21.532033            0   -20.095789  -0.24894423 
  114500   0.95657556   -21.538014            0   -20.103151  -0.24937728 
  115000   0.95715262   -21.537245            0   -20.101517  -0.27038048 
  115500   0.95568172   -21.531142            0   -20.097621  -0.24966241 
  116000   0.95686801   -21.530813            0   -20.095512  -0.24522515 
  116500    0.9568079   -21.534073            0   -20.098862  -0.25438343 
  117000   0.95730297   -21.537255            0   -20.101301  -0.26001861 
  117500    0.9557347   -21.543245            0   -20.109644  -0.26889396 
  118000   0.95763014   -21.531714            0    -20.09527  -0.23076212 
  118500   0.95662871   -21.535447            0   -20.100505  -0.26308319 
  119000   0.95770856   -21.537679            0   -20.101117  -0.27313127 
  119500   0.95752106   -21.533616            0   -20.097336  -0.22515155 
  120000   0.95655726   -21.520923            0   -20.086088   -0.2222969 
  120500   0.95682831   -21.527636            0   -20.092395  -0.23074383 
  121000   0.95720305    -21.52572            0   -20.089917  -0.24817734 
  121500   0.95483961    -21.52086            0   -20.088602   -0.2581416 
  122000   0.95701675   -21.525124            0     -20.0896  -0.24151074 
  122500   0.95594183   -21.528204            0   -20.094292  -0.24832116 
  123000   0.95616143   -21.534396            0   -20.100155  -0.25002651 
  123500   0.95721755   -21.526534            0   -20.090709  -0.24122339 
  124000   0.95734202   -21.546772            0    -20.11076  -0.27884017 
  124500   0.95673124   -21.539693            0   -20.104598  -0.27144894 
  125000   0.95647059   -21.533661            0   -20.098956  -0.28250791 
  125500   0.95754562   -21.537118            0     -20.1008  -0.26699218 
  126000   0.95714187   -21.528894            0   -20.093182  -0.22811322 
  126500   0.95665505    -21.53416            0   -20.099179  -0.24614376 
  127000   0.95683069   -21.538134            0   -20.102889  -0.23946913 
  127500   0.95695362   -21.528726            0   -20.093297  -0.25365469 
  128000   0.95804062    -21.52906            0      -20.092   -0.2557547 
  128500   0.95735633   -21.530592            0   -20.094558  -0.26862977 
  129000   0.95834953    -21.53573            0   -20.098207  -0.27036421 
  129500   0.95751296   -21.527631            0   -20.091362  -0.24087563 
  130000   0.95709846   -21.543717            0    -20.10807  -0.25593724 
  130500    0.9571535    -21.53596            0   -20.100231   -0.2651752 
  131000     0.956699   -21.535734            0   -20.100687  -0.25017902 
  131500   0.95738004   -21.541133            0   -20.105064  -0.27009998 
  132000   0.95682268   -21.536285            0   -20.101052  -0.25954766 
  132500   0.95641818   -21.542288            0   -20.107662  -0.28102682 
  133000   0.95783879    -21.52734            0   -20.090583  -0.25041414 
  133500    0.9560872   -21.530563            0   -20.096433  -0.24699821 
  134000   0.95699534   -21.525115            0   -20.089623  -0.24861528 
  134500   0.95662267   -21.534042            0   -20.099109  -0.25101071 
  135000   0.95524009   -21.534244            0   -20.101385  -0.24642798 
  135500   0.95603108   -21.534766            0   -20.100721  -0.26623299 
  136000   0.95735705   -21.542678            0   -20.106644  -0.26232124 
  136500   0.95726097   -21.529774            0   -20.093884   -0.2497483 
  137000   0.95785261    -21.52736            0   -20.090582  -0.25005953 
  137500    0.9572303   -21.532023            0   -20.096178  -0.24748571 
  138000   0.95631416   -21.532266            0   -20.097796  -0.25902206 
  138500   0.95677924   -21.528719            0   -20.093551  -0.24046556 
  139000   0.95704298   -21.535104            0    -20.09954  -0.26506456 
  139500   0.95684111   -21.536661            0     -20.1014  -0.25956457 
  140000   0.95706812    -21.53058            0   -20.094979  -0.23141413 
  140500   0.95578581   -21.535301            0   -20.101624  -0.24122637 
  141000   0.95667335   -21.533053            0   -20.098044  -0.24862243 
  141500   0.95597653   -21.534721            0   -20.100757  -0.24740208 
  142000   0.95713811   -21.535416            0    -20.09971  -0.26194959 
  142500    0.9569308   -21.530811            0   -20.095416  -0.25504624 
  143000   0.95716362    -21.54238            0   -20.106636  -0.26738861 
  143500   0.95677101   -21.532791            0   -20.097635  -0.26145315 
  144000   0.95711337   -21.527102            0   -20.091433  -0.25959352 
  144500   0.95568937   -21.541311            0   -20.107778  -0.27404152 
  145000   0.95681019   -21.528042            0   -20.092828  -0.25051641 
  145500   0.95597367   -21.531497            0   -20.097537  -0.25229946 
  146000   0.95771568   -21.538093            0   -20.101521  -0.25571274 
  146500   0.95722213   -21.542003            0   -20.106171  -0.26809798 
  147000   0.95750834   -21.549044            0   -20.112782  -0.29418359 
  147500   0.95692031   -21.525262            0   -20.089883  -0.24365633 
  148000   0.95813345   -21.531008            0   -20.093809  -0.22164443 
  148500   0.95670897   -21.532019            0   -20.096957  -0.27017841 
  149000   0.95636975   -21.536734            0   -20.102181  -0.25564819 
  149500   0.95800846   -21.539333            0   -20.102321  -0.26256256 
  150000   0.95678151   -21.532854            0   -20.097682  -0.25241953 
  150500   0.95779095    -21.53664            0   -20.099955  -0.26670256 
  151000   0.95751595   -21.530895            0   -20.094622  -0.23560441 
  151500   0.95650937   -21.544786            0   -20.110023  -0.26636112 
  152000   0.95665572   -21.544663            0   -20.109681  -0.26664228 
  152500   0.95726422   -21.532909            0   -20.097014  -0.23409708 
  153000   0.95712482   -21.532251            0   -20.096564   -0.2425086 
  153500   0.95709017   -21.539818            0   -20.104184  -0.25832104 
  154000   0.95687783   -21.542408            0   -20.107092  -0.23826094 
  154500   0.95763642   -21.538952            0   -20.102498  -0.23363368 
  155000   0.95495485   -21.537534            0   -20.105103  -0.29707272 
  155500   0.95741176   -21.539287            0    -20.10317  -0.26357155 
  156000   0.95824936     -21.5421            0   -20.104727  -0.26188471 
  156500   0.95701554   -21.538398            0   -20.102876  -0.24972967 
  157000   0.95602901   -21.534575            0   -20.100533  -0.25267679 
  157500    0.9557955   -21.538547            0   -20.104855  -0.26756808 
  158000   0.95696001   -21.552437            0   -20.116998  -0.25259153 
  158500   0.95684921   -21.534808            0   -20.099535  -0.24965381 
  159000   0.95790331   -21.546319            0   -20.109465  -0.25732859 
  159500   0.95609374   -21.541926            0   -20.107786   -0.2597311 
  160000   0.95684404   -21.545271            0   -20.110006  -0.26865196 
  160500    0.9578867   -21.540338            0   -20.103509  -0.24190064 
  161000    0.9565639    -21.52835            0   -20.093505  -0.22458845 
  161500   0.95628465   -21.533355            0   -20.098929  -0.24803891 
  162000   0.95652442   -21.537277            0   -20.102491  -0.25024756 
  162500   0.95750614   -21.552446            0   -20.116188  -0.28033529 
  163000   0.95657622   -21.545642            0   -20.110779  -0.28410781 
  163500   0.95754064   -21.547619            0   -20.111309  -0.26361952 
  164000   0.95717757   -21.530417            0   -20.094652  -0.26224596 
  164500   0.95672432   -21.546074            0   -20.110989  -0.26138252 
  165000    0.9574925   -21.538545            0   -20.102307  -0.25523532 
  165500   0.95611696   -21.534319            0   -20.100144  -0.24412032 
  166000   0.95674219   -21.538546            0   -20.103434  -0.25014326 
  166500   0.95581886   -21.532498            0   -20.098771  -0.26234199 
  167000   0.95721953   -21.537945            0   -20.102117  -0.26224093 
  167500   0.95723003   -21.537364            0    -20.10152  -0.25926371 
  168000   0.95616292   -21.533218            0   -20.098975  -0.26337705 
  168500   0.95612397    -21.53375            0   -20.099565  -0.23426684 
  169000    0.9565681   -21.543872            0   -20.109021   -0.2362195 
  169500   0.95672879   -21.535419            0   -20.100327   -0.2622646 
  170000   0.95649839   -21.536816            0    -20.10207  -0.24347018 
  170500   0.95650075    -21.54022            0    -20.10547  -0.25351722 
  171000   0.95708596   -21.536171            0   -20.100543  -0.26265162 
  171500   0.95763131    -21.53573            0   -20.099284  -0.23016146 
  172000   0.95732208    -21.53021            0   -20.094228  -0.24499596 
  172500    0.9575678   -21.532088            0   -20.095737  -0.23839801 
  173000   0.95679082   -21.536007            0   -20.100821  -0.24442601 
  173500   0.95753328   -21.545301            0   -20.109002  -0.25517051 
  174000   0.95621552   -21.545165            0   -20.110843   -0.2564445 
  174500    0.9568071   -21.547393            0   -20.112183  -0.24586059 
  175000   0.95737622   -21.539118            0   -20.103055  -0.26571846 
  175500   0.95733266   -21.551366            0   -20.115368  -0.26854951 
  176000   0.95685829   -21.527958            0   -20.092672  -0.23173253 
  176500    0.9567845   -21.545873            0   -20.110697  -0.27344052 
  177000   0.95832352   -21.546884            0   -20.109399  -0.25578615 
  177500   0.95715979   -21.544296            0   -20.108557  -0.26044713 
  178000   0.95704515   -21.535922            0   -20.100355  -0.25772524 
  178500   0.95572872   -21.529419            0   -20.095827  -0.25030215 
  179000   0.95725882     -21.5461            0   -20.110213  -0.26044155 
  179500   0.95788293   -21.528992            0   -20.092168  -0.22560338 
  180000   0.95683287   -21.530976            0   -20.095727  -0.23476502 
  180500   0.95680678   -21.537073            0   -20.101864   -0.2488177 
  181000   0.95598747    -21.53654            0    -20.10256  -0.25682865 
  181500   0.95804414   -21.533218            0   -20.096153  -0.23329495 
  182000   0.95736381   -21.536731            0   -20.100686  -0.23634049 
  182500   0.95709202   -21.537554            0   -20.101917  -0.25306572 
  183000   0.95590574   -21.529703            0   -20.095845  -0.23714038 
  183500   0.95654654   -21.540531            0   -20.105713  -0.26120596 
  184000    0.9578883   -21.538683            0   -20.101851  -0.23305469 
  184500   0.95723809   -21.536474            0   -20.100618  -0.26065519 
  185000   0.95782908   -21.535795            0   -20.099052  -0.24259377 
  185500   0.95733862   -21.535006            0   -20.098999  -0.23350777 
  186000   0.95761529   -21.542717            0   -20.106295  -0.25466239 
  186500   0.95678021   -21.543459            0   -20.108289  -0.27762224 
  187000   0.95800006   -21.524553            0   -20.087554  -0.24643452 
  187500    0.9576258   -21.540303            0   -20.103865  -0.24810729 
  188000   0.95712711   -21.551247            0   -20.115557  -0.27298735 
  188500   0.95621364   -21.531776            0   -20.097457  -0.23889144 
  189000   0.95690151   -21.540872            0    -20.10552   -0.2639711 
  189500   0.95667809   -21.548004            0   -20.112987  -0.24896235 
  190000   0.95657737   -21.554035            0    -20.11917  -0.27283357 
  190500    0.9564866   -21.543506            0   -20.108777  -0.23624982 
  191000   0.95794343   -21.540462            0   -20.103548  -0.23771833 
  191500   0.95631019   -21.549095            0    -20.11463  -0.27621171 
  192000   0.95665153   -21.537998            0   -20.103021  -0.24506357 
  192500   0.95722273   -21.533073            0    -20.09724  -0.21903732 
  193000   0.95628965   -21.529191            0   -20.094757  -0.23054969 
  193500   0.95701178   -21.547903            0   -20.112387  -0.26767009 
  194000   0.95719393   -21.540427            0   -20.104638  -0.23784405 
  194500   0.95720893   -21.528541            0   -20.092728   -0.2338686 
  195000   0.95729864   -21.532674            0   -20.096727  -0.24416354 
  195500   0.95548265   -21.540977            0   -20.107754  -0.25368938 
  196000   0.95748977    -21.54725            0   -20.111016  -0.26671269 
  196500   0.95562986   -21.539944            0     -20.1065  -0.25180102 
  197000   0.95654698   -21.532038            0   -20.097219  -0.22503993 
  197500   0.95754838   -21.534547            0   -20.098226  -0.25777255 
  198000   0.95537124   -21.534781            0   -20.101726  -0.24113177 
  198500   0.95699839   -21.535575            0   -20.100078  -0.23762721 
  199000   0.95693903   -21.547613            0   -20.112206  -0.24490689 
  199500    0.9557855   -21.533077            0     -20.0994  -0.25559772 
  200000   0.95683989   -21.546481            0   -20.111222  -0.24573273 
  200500   0.95702379   -21.548468            0   -20.112933   -0.2709481 
  201000   0.95889072   -21.552222            0   -20.113887  -0.28521341 
  201500    0.9570293    -21.55147            0   -20.115927  -0.28194667 
  202000   0.95625024   -21.533498            0   -20.099124  -0.24972244 
  202500   0.95652008   -21.533298            0   -20.098519  -0.25868774 
  203000   0.95672182   -21.540014            0   -20.104932  -0.24956374 
  203500   0.95719452   -21.539225            0   -20.103434  -0.25791949 
  204000   0.95652989   -21.528458            0   -20.093664  -0.23545091 
  204500   0.95740722   -21.545976            0   -20.109866  -0.26524678 
  205000   0.95725811   -21.546944            0   -20.111058  -0.26459819 
  205500   0.95713645   -21.537448            0   -20.101745  -0.25754264 
  206000   0.95652312   -21.540734            0    -20.10595  -0.26444724 
  206500   0.95720767   -21.531862            0   -20.096052  -0.26545756 
  207000   0.95529459   -21.533488            0   -20.100547  -0.23913921 
  207500   0.95639335    -21.52748            0   -20.092891  -0.23893969 
  208000   0.95712001   -21.542162            0   -20.106483  -0.25960913 
  208500   0.95734845   -21.546322            0   -20.110301  -0.26162847 
  209000   0.95676777   -21.545869            0   -20.110718   -0.2404811 
  209500   0.95694837   -21.547089            0   -20.111667  -0.23388748 
  210000   0.95640903   -21.538592            0    -20.10398  -0.26574464 
  210500   0.95740629   -21.547004            0   -20.110895  -0.25192089 
  211000   0.95640668   -21.548115            0   -20.113506  -0.27928596 
  211500    0.9566303   -21.553649            0   -20.118704  -0.26922589 
  212000   0.95773366   -21.536387            0   -20.099787  -0.23083079 
  212500    0.9570724   -21.547033            0   -20.111426  -0.23093959 
  213000   0.95742108    -21.54475            0   -20.108619  -0.24870702 
  213500   0.95711753   -21.536207            0   -20.100532  -0.24754703 
  214000   0.95691801   -21.547534            0   -20.112158  -0.27275143 
  214500   0.95769542   -21.539527            0   -20.102985  -0.22965253 
  215000   0.95723759   -21.532685            0    -20.09683   -0.2305965 
  215500    0.9568956   -21.549861            0   -20.114519  -0.24847604 
  216000   0.95811383   -21.553005            0   -20.115835  -0.26404149 
  216500   0.95754044   -21.539802            0   -20.103492   -0.2438006 
  217000   0.95665118   -21.545218            0   -20.110242  -0.24925803 
  217500   0.95712378   -21.532217            0   -20.096532  -0.24878777 
  218000    0.9575668   -21.543307            0   -20.106958  -0.24256865 
  218500   0.95735432   -21.555226            0   -20.119195  -0.27732702 
  219000   0.95617179   -21.554025            0   -20.119768  -0.27953476 
  219500   0.95680413   -21.546973            0   -20.111768   -0.2602187 
  220000    0.9559617   -21.552236            0   -20.118294  -0.26632853 
  220500   0.95729527   -21.538874            0   -20.102932  -0.26468684 
  221000   0.95790809    -21.55419            0   -20.117329  -0.25226858 
  221500   0.95614939     -21.5468            0   -20.112576  -0.23376375 
  222000   0.95725679   -21.545741            0   -20.109856  -0.25627847 
  222500   0.95699304   -21.550074            0   -20.114586  -0.26396909 
  223000   0.95698207   -21.535347            0   -20.099875  -0.25623708 
  223500    0.9559866   -21.550136            0   -20.116157  -0.24253222 
  224000   0.95718297   -21.540694            0   -20.104921  -0.21902568 
  224500   0.95712108   -21.539768            0   -20.104087  -0.23682405 
  225000   0.95684322   -21.554006            0   -20.118743  -0.25809524 
  225500   0.95620896   -21.550129            0   -20.115817  -0.24310606 
  226000   0.95663472   -21.541257            0   -20.106306  -0.26749243 
  226500   0.95632624   -21.551379            0   -20.116891  -0.24760418 
  227000   0.95758596   -21.548087            0   -20.111709  -0.25529299 
  227500   0.95667027   -21.531881            0   -20.096877  -0.23659765 
  228000   0.95637365   -21.550159            0     -20.1156   -0.2545664 
  228500   0.95623632   -21.550431            0   -20.116078  -0.25573321 
  229000   0.95760478   -21.549229            0   -20.112823  -0.26430796 
  229500   0.95780359   -21.549346            0   -20.112642  -0.22913519 
  230000   0.95764953   -21.549955            0   -20.113481  -0.25443617 
  230500   0.95771592   -21.545494            0   -20.108921  -0.25601715 
  231000    0.9570593   -21.547241            0   -20.111653  -0.23946358 
  231500   0.95784376   -21.539881            0   -20.103117  -0.23460132 
  232000    0.9570831   -21.548501            0   -20.112878  -0.24102478 
  232500   0.95705705   -21.552253            0   -20.116668  -0.26078567 
  233000   0.95625587   -21.559102            0   -20.124719  -0.26312458 
  233500   0.95748044   -21.528138            0   -20.091918  -0.22884233 
  234000   0.95710849   -21.548715            0   -20.113053  -0.25367985 
  234500   0.95647107   -21.540357            0   -20.105651  -0.26608844 
  235000   0.95705838   -21.538091            0   -20.102504  -0.25130353 
  235500   0.95719422   -21.539708            0   -20.103918  -0.24291378 
  236000   0.95666632   -21.545053            0   -20.110054  -0.24141523 
  236500   0.95708553   -21.541265            0   -20.105638  -0.24380617 
  237000   0.95686974   -21.538141            0   -20.102837  -0.24049344 
  237500   0.95732655   -21.557546            0   -20.121558  -0.25478222 
  238000    0.9581904   -21.546595            0   -20.109311  -0.24778333 
  238500   0.95535281   -21.552092            0   -20.119064   -0.2591438 
  239000   0.95681713   -21.548363            0   -20.113138  -0.26583152 
  239500   0.95641102   -21.545868            0   -20.111252  -0.25356493 
  240000   0.95746931   -21.542939            0   -20.106736  -0.21733166 
  240500   0.95681889   -21.530016            0   -20.094789  -0.24150241 
  241000   0.95724933   -21.545358            0   -20.109485  -0.24756182 
  241500   0.95629736     -21.5385            0   -20.104055  -0.23009012 
  242000   0.95605982   -21.550659            0    -20.11657  -0.26459134 
  242500   0.95739194   -21.538836            0   -20.102749  -0.22492402 
  243000   0.95589308   -21.546527            0   -20.112688  -0.26362562 
  243500   0.95657979   -21.544975            0   -20.110106  -0.25952367 
  244000   0.95688749   -21.542254            0   -20.106924  -0.26353777 
  244500   0.95694681   -21.548552            0   -20.113132  -0.24107457 
  245000   0.95645623   -21.543995            0   -20.109311  -0.24224014 
  245500    0.9556159   -21.539947            0   -20.106524  -0.24347168 
  246000   0.95664174   -21.540252            0    -20.10529  -0.23953168 
  246500   0.95614194   -21.552712            0     -20.1185  -0.25456206 
  247000   0.95723718   -21.552193            0   -20.116338  -0.25476263 
  247500   0.95712305   -21.554132            0   -20.118449  -0.27870879 
  248000   0.95666848   -21.557292            0    -20.12229  -0.25555589 
  248500   0.95844974   -21.541606            0   -20.103933   -0.2372552 
  249000   0.95713739   -21.545021            0   -20.109316  -0.23106897 
  249500     0.955952   -21.551363            0   -20.117436  -0.23361344 
  250000   0.95786612    -21.55006            0   -20.113262  -0.26043971 
  250500   0.95582177   -21.544302            0    -20.11057  -0.23980881 
  251000   0.95763881   -21.545734            0   -20.109277  -0.23759609 
  251500   0.95666989   -21.548366            0   -20.113362   -0.2495094 
  252000   0.95684248    -21.54812            0   -20.112858  -0.25231147 
  252500   0.95782658   -21.543876            0   -20.107137  -0.26762542 
  253000   0.95757777    -21.54758            0   -20.111214  -0.23482251 
  253500   0.95598768   -21.547586            0   -20.113606  -0.24302516 
  254000   0.95533871   -21.543889            0   -20.110882  -0.22665799 
  254500   0.95764704   -21.549908            0   -20.113438  -0.26316154 
  255000   0.95600496   -21.553923            0   -20.119916  -0.25137295 
  255500   0.95699329   -21.549241            0   -20.113752   -0.2739672 
  256000   0.95646208   -21.540989            0   -20.106297  -0.23429995 
  256500   0.95587487    -21.54738            0   -20.113569  -0.24032634 
  257000   0.95779437    -21.55533            0   -20.118639  -0.25179378 
  257500   0.95659382   -21.552074            0   -20.117184   -0.2390974 
  258000   0.95603348   -21.548437            0   -20.114387  -0.23202842 
  258500   0.95716085    -21.53778            0    -20.10204   -0.2276327 
  259000   0.95627964   -21.555567            0   -20.121149  -0.24632727 
  259500   0.95698855   -21.554718            0   -20.119236  -0.24346677 
  260000   0.95764666   -21.549565            0   -20.113096  -0.26465447 
  260500   0.95671041   -21.554109            0   -20.119044  -0.24467082 
  261000    0.9572312   -21.538177            0   -20.102331  -0.25251859 
  261500   0.95732076   -21.548732            0   -20.112752  -0.22909275 
  262000     0.956771   -21.545197            0   -20.110041  -0.24087472 
  262500   0.95674065   -21.540189            0   -20.105079  -0.23857076 
  263000   0.95695059   -21.540929            0   -20.105504  -0.25512111 
  263500   0.95610555   -21.548414            0   -20.114257  -0.25981163 
  264000   0.95706504   -21.547331            0   -20.111734  -0.21719271 
  264500   0.95628363   -21.558578            0   -20.124153  -0.27768005 
  265000   0.95751692   -21.549275            0   -20.113001  -0.26296207 
  265500   0.95669203   -21.550902            0   -20.115865  -0.24341742 
  266000   0.95670283   -21.549158            0   -20.114104  -0.25558738 
  266500   0.95785421   -21.545329            0   -20.108549  -0.25017958 
  267000   0.95711375   -21.550428            0   -20.114758  -0.24405808 
  267500   0.95661423   -21.554437            0   -20.119517  -0.26152629 
  268000   0.95703378   -21.542357            0   -20.106807  -0.24111187 
  268500   0.95749102   -21.552894            0   -20.116658  -0.23663901 
  269000   0.95628516   -21.545599            0   -20.111173  -0.25270958 
  269500   0.95737373    -21.54742            0    -20.11136  -0.27030668 
  270000   0.95693078   -21.550592            0   -20.115196  -0.24213194 
  270500   0.95762568   -21.545699            0   -20.109261  -0.27193356 
  271000   0.95752049   -21.548704            0   -20.112424  -0.25562065 
  271500   0.95621721   -21.540633            0   -20.106308  -0.24580947 
  272000     0.957229    -21.55096            0   -20.115117  -0.22512901 
  272500   0.95678279    -21.54943            0   -20.114257  -0.25562724 
  273000   0.95696081   -21.542615            0   -20.107175  -0.23864621 
  273500   0.95587924   -21.542487            0   -20.108669  -0.23407289 
  274000   0.95769767   -21.542588            0   -20.106042  -0.21034903 
  274500    0.9569035   -21.550064            0   -20.114709  -0.24775445 
  275000   0.95761585   -21.551014            0   -20.114592  -0.25896954 
  275500   0.95743299   -21.548079            0   -20.111931  -0.24856125 
  276000   0.95625873   -21.551359            0   -20.116971  -0.24577064 
  276500    0.9576088    -21.55916            0   -20.122748  -0.27099245 
  277000    0.9563493   -21.541099            0   -20.106576  -0.23961916 
  277500   0.95738792   -21.539228            0   -20.103147  -0.21955882 
  278000   0.95698737   -21.537549            0   -20.102069  -0.22826019 
  278500    0.9573002    -21.56378            0    -20.12783  -0.28111235 
  279000    0.9563857   -21.549342            0   -20.114765  -0.27371026 
  279500    0.9562181    -21.54134            0   -20.107014  -0.25158493 
  280000   0.95696461   -21.557651            0   -20.122205  -0.26776737 
  280500   0.95725553   -21.559026            0   -20.123144  -0.26656836 
  281000   0.95692822   -21.549608            0   -20.114216  -0.25782162 
  281500   0.95637166   -21.554194            0   -20.119638  -0.27060205 
  282000   0.95645342   -21.542589            0    -20.10791  -0.24676377 
  282500   0.95645631    -21.55968            0   -20.124996  -0.24788812 
  283000   0.95600946   -21.558283            0    -20.12427  -0.28058137 
  283500   0.95766904   -21.552015            0   -20.115512  -0.24884051 
  284000   0.95622636   -21.553017            0   -20.118678   -0.2601203 
  284500   0.95763137   -21.558062            0   -20.121616  -0.24553287 
  285000   0.95601556   -21.558073            0   -20.124051  -0.27965479 
  285500   0.95679644   -21.547778            0   -20.112585  -0.25911838 
  286000   0.95679885   -21.554161            0   -20.118964  -0.24680903 
  286500   0.95655906   -21.562214            0   -20.127377  -0.24341925 
  287000   0.95782188   -21.546877            0   -20.110145  -0.24434198 
  287500   0.95711828   -21.544939            0   -20.109262  -0.23742115 
  288000   0.95644776   -21.536113            0   -20.101442  -0.23322859 
  288500   0.95702814   -21.544129            0   -20.108587  -0.23970218 
  289000   0.95643015   -21.562158            0   -20.127514  -0.27720168 
  289500   0.95781209   -21.548169            0   -20.111452  -0.24492924 
  290000   0.95647616   -21.542927            0   -20.108214   -0.1867412 
  290500   0.95699481   -21.551943            0   -20.116452  -0.24971387 
  291000   0.95626758   -21.553878            0   -20.119478  -0.23070126 
  291500   0.95757857   -21.551923            0   -20.115556  -0.25830776 
  292000   0.95714887   -21.561625            0   -20.125903  -0.25706935 
  292500   0.95653883   -21.542286            0   -20.107479  -0.23793746 
  293000   0.95695166   -21.542381            0   -20.106954  -0.24971878 
  293500   0.95766666   -21.552561            0   -20.116062  -0.26174156 
  294000   0.95703708   -21.549538            0   -20.113984  -0.26125077 
  294500   0.95658538   -21.550265            0   -20.115388  -0.23149491 
  295000   0.95754151   -21.553248            0   -20.116937  -0.23349906 
  295500   0.95727288    -21.55603            0   -20.120122   -0.2494323 
  296000   0.95698577    -21.55635            0   -20.120872  -0.28176901 
  296500   0.95682865   -21.542827            0   -20.107585  -0.20792843 
  297000   0.95824875   -21.543331            0   -20.105959  -0.24152294 
  297500   0.95667478   -21.550958            0   -20.115947  -0.24969701 
  298000   0.95587344   -21.550879            0    -20.11707  -0.25202341 
  298500   0.95723891   -21.549046            0   -20.113189  -0.26358507 
  299000   0.95680649   -21.566542            0   -20.131333  -0.26388259 
  299500    0.9569049   -21.553184            0   -20.117828   -0.2634292 
  300000   0.95655579   -21.550568            0   -20.115735  -0.25000793 
  300500   0.95703679   -21.551687            0   -20.116133  -0.24844864 
  301000   0.95793957    -21.56445            0   -20.127542  -0.23635719 
  301500   0.95666822   -21.559777            0   -20.124776  -0.25316153 
  302000   0.95692177   -21.553093            0   -20.117712  -0.25549441 
  302500    0.9562332   -21.548457            0   -20.114109  -0.23259913 
  303000   0.95627641   -21.555538            0   -20.121124   -0.2488126 
  303500   0.95765365   -21.549954            0   -20.113475  -0.23853887 
  304000   0.95753044   -21.551151            0   -20.114856  -0.24707782 
  304500   0.95668418   -21.549279            0   -20.114254  -0.28550527 
  305000   0.95635963    -21.55501            0   -20.120472  -0.24698011 
  305500   0.95665402   -21.561285            0   -20.126305  -0.23084032 
  306000   0.95582142   -21.546896            0   -20.113165  -0.23323726 
  306500   0.95781571   -21.554745            0   -20.118023  -0.23396953 
  307000   0.95812581    -21.53725            0   -20.100062  -0.20213815 
  307500    0.9564631   -21.548257            0   -20.113564  -0.24368864 
  308000   0.95651843   -21.561251            0   -20.126475  -0.26354964 
  308500   0.95694187   -21.556317            0   -20.120905   -0.2268459 
  309000   0.95701188   -21.553267            0    -20.11775  -0.22887459 
  309500   0.95720536    -21.54916            0   -20.113353  -0.25198571 
  310000   0.95723676   -21.550972            0   -20.115118  -0.25330529 
  310500   0.95769668   -21.556364            0    -20.11982  -0.24190352 
  311000    0.9576477   -21.562547            0   -20.126076  -0.28164543 
  311500   0.95774437    -21.55891            0   -20.122295  -0.23671112 
  312000    0.9572857   -21.559158            0   -20.123231  -0.25695874 
  312500   0.95652993   -21.556468            0   -20.121674  -0.25345671 
  313000   0.95713827   -21.557895            0   -20.122188  -0.25569389 
  313500    0.9574821   -21.559122            0     -20.1229  -0.25255603 
  314000   0.95748134   -21.551428            0   -20.115207   -0.2776587 
  314500   0.95842923   -21.550388            0   -20.112745  -0.24611877 
  315000   0.95720262   -21.561469            0   -20.125666  -0.25568786 
  315500    0.9566418   -21.555009            0   -20.120048  -0.24327289 
  316000   0.95670326   -21.556665            0   -20.121611  -0.24455586 
  316500   0.95761972   -21.562024            0   -20.125595  -0.27056827 
  317000   0.95689458   -21.559507            0   -20.124166  -0.24600191 
  317500   0.95709353   -21.550354            0   -20.114714  -0.25753484 
  318000   0.95720532   -21.541453            0   -20.105646  -0.21498441 
  318500   0.95663268   -21.563519            0   -20.128571  -0.26857838 
  319000   0.95701415   -21.549215            0   -20.113695  -0.26483092 
  319500   0.95762635   -21.551729            0   -20.115291  -0.24832214 
  320000   0.95902014   -21.539682            0   -20.101152  -0.22371785 
  320500   0.95702437   -21.553025            0   -20.117489  -0.25164236 
  321000   0.95641852   -21.548468            0   -20.113841  -0.25397212 
  321500    0.9579604   -21.551435            0   -20.114495  -0.24852078 
  322000   0.95745431   -21.542486            0   -20.106305  -0.23726652 
  322500   0.95715748   -21.571947            0   -20.136211  -0.27106459 
  323000   0.95612439   -21.557698            0   -20.123512  -0.25834764 
  323500   0.95707518   -21.550829            0   -20.115218  -0.23979995 
  324000   0.95626326   -21.540461            0   -20.106068  -0.23121323 
  324500   0.95626086   -21.547135            0   -20.112744  -0.23324759 
  325000   0.95770915   -21.552767            0   -20.116205  -0.25563101 
  325500   0.95701486   -21.558939            0   -20.123418  -0.25056963 
  326000   0.95629314   -21.560587            0   -20.126149   -0.2509544 
  326500   0.95681687   -21.548458            0   -20.113234   -0.2240342 
  327000   0.95751043   -21.560825            0    -20.12456  -0.27326428 
  327500   0.95748697   -21.553917            0   -20.117687  -0.24564789 
  328000   0.95699182   -21.566032            0   -20.130545  -0.26885254 
  328500   0.95693573   -21.546476            0   -20.111073  -0.22922704 
  329000   0.95641421   -21.551475            0   -20.116855  -0.26832726 
  329500   0.95711705   -21.553097            0   -20.117423  -0.22353181 
  330000   0.95632792   -21.560087            0   -20.125596  -0.26239134 
  330500   0.95663336   -21.560927            0   -20.125978  -0.26265508 
  331000   0.95769357   -21.556673            0   -20.120133  -0.23916631 
  331500   0.95597079   -21.548673            0   -20.114718  -0.21705116 
  332000   0.95596524   -21.551467            0    -20.11752  -0.23504326 
  332500   0.95713196   -21.551149            0   -20.115452  -0.22714569 
  333000   0.95704594   -21.548509            0   -20.112942  -0.24009477 
  333500   0.95570869   -21.551009            0   -20.117447  -0.26722405 
  334000   0.95746592   -21.555583            0   -20.119385  -0.24271786 
  334500   0.95696988   -21.558848            0   -20.123394  -0.24616737 
  335000   0.95667729   -21.559008            0   -20.123993  -0.24400995 
  335500   0.95566978    -21.54849            0   -20.114987  -0.23065308 
  336000   0.95715076   -21.557902            0   -20.122177  -0.25203941 
  336500   0.95644106   -21.562705            0   -20.128044  -0.25318549 
  337000   0.95760638   -21.550155            0   -20.113746  -0.23962609 
  337500   0.95661506   -21.551345            0   -20.116423  -0.23433954 
  338000   0.95652191   -21.563329            0   -20.128547  -0.25648423 
  338500   0.95566567   -21.554608            0   -20.121111  -0.26861063 
  339000   0.95724999   -21.552462            0   -20.116588  -0.24626708 
  339500   0.95669385   -21.550223            0   -20.115183  -0.25073321 
  340000   0.95760259   -21.563332            0   -20.126929  -0.23392614 
  340500   0.95747131   -21.551342            0   -20.115136  -0.21849107 
  341000   0.95700663   -21.551214            0   -20.115705  -0.22740422 
  341500   0.95630295   -21.552533            0    -20.11808  -0.24361375 
  342000   0.95564383   -21.550766            0   -20.117301  -0.22916748 
  342500   0.95728263   -21.542703            0    -20.10678  -0.22406346 
  343000   0.95637831   -21.551213            0   -20.116647   -0.2323276 
  343500   0.95736991    -21.56395            0   -20.127896  -0.25251326 
  344000   0.95609858   -21.570421            0   -20.136274  -0.26617263 
  344500   0.95725079   -21.555405            0   -20.119529  -0.23294134 
  345000   0.95664541   -21.554248            0    -20.11928  -0.23633223 
  345500   0.95743897   -21.560874            0   -20.124716  -0.26567864 
  346000   0.95637519   -21.558443            0   -20.123881  -0.27243382 
  346500   0.95742207   -21.545572            0    -20.10944   -0.2371382 
  347000   0.95831259   -21.556707            0   -20.119239  -0.24489212 
  347500   0.95747215   -21.557825            0   -20.121618  -0.23934785 
  348000   0.95668986   -21.557671            0   -20.122637  -0.26217567 
  348500   0.95624157   -21.542451            0    -20.10809  -0.24841469 
  349000   0.95671239   -21.549819            0   -20.114752  -0.24354915 
  349500   0.95642963    -21.55583            0   -20.121186  -0.23854887 
  350000   0.95777155    -21.54966            0   -20.113004  -0.22578066 
  350500   0.95701332   -21.548288            0   -20.112769  -0.24362126 
  351000   0.95590028   -21.551124            0   -20.117274  -0.24793162 
  351500   0.95659027   -21.551033            0   -20.116149  -0.24341877 
  352000   0.95744691   -21.553555            0   -20.117386  -0.25284965 
  352500   0.95739208   -21.564172            0   -20.128084  -0.25227574 
  353000   0.95765121   -21.549699            0   -20.113223  -0.23561888 
  353500    0.9570563   -21.550139            0   -20.114556  -0.22113858 
  354000   0.95632618   -21.557328            0    -20.12284  -0.21144216 
  354500   0.95802515   -21.570453            0   -20.133416  -0.28519548 
  355000    0.9570394   -21.564152            0   -20.128594  -0.25911921 
  355500   0.95646901   -21.548491            0   -20.113789  -0.25354137 
  356000   0.95684713   -21.542812            0   -20.107543  -0.22313546 
  356500   0.95738241   -21.552791            0   -20.116718  -0.21807329 
  357000   0.95654754   -21.554307            0   -20.119486  -0.23627794 
  357500   0.95854785   -21.545422            0   -20.107601  -0.24882626 
  358000   0.95683289   -21.553399            0    -20.11815  -0.25322398 
  358500   0.95724958   -21.544046            0   -20.108172  -0.25003204 
  359000   0.95850308   -21.558589            0   -20.120835  -0.24738189 
  359500   0.95634995   -21.557516            0   -20.122992    -0.248451 
  360000    0.9563475   -21.561541            0   -20.127021  -0.26123644 
  360500   0.95658273   -21.557913            0   -20.123039  -0.26187461 
  361000   0.95634541   -21.542527            0    -20.10801  -0.22039815 
  361500   0.95683514   -21.559173            0   -20.123921  -0.25578154 
  362000   0.95645614   -21.550238            0   -20.115554  -0.25326656 
  362500   0.95653485   -21.550141            0    -20.11534  -0.23743482 
  363000   0.95693325   -21.552418            0    -20.11702  -0.25524119 
  363500   0.95638247   -21.535727            0   -20.101154  -0.20921367 
  364000   0.95562434   -21.555341            0   -20.121905  -0.23874906 
  364500    0.9570885   -21.566309            0   -20.130677  -0.25249826 
  365000   0.95705509   -21.557915            0   -20.122333  -0.25126238 
  365500   0.95643813   -21.552005            0   -20.117349  -0.22804036 
  366000   0.95685041   -21.560398            0   -20.125124  -0.24650841 
  366500   0.95680449   -21.554451            0   -20.119245   -0.2447365 
  367000   0.95655412   -21.544509            0   -20.109679  -0.21554007 
  367500   0.95748614   -21.546751            0   -20.110523  -0.25657299 
  368000   0.95688131   -21.558471            0    -20.12315   -0.2506059 
  368500    0.9560872   -21.555171            0   -20.121042  -0.25373892 
  369000   0.95669518   -21.546305            0   -20.111264   -0.2323058 
  369500   0.95593753   -21.542153            0   -20.108248  -0.21845072 
  370000   0.95722013   -21.537987            0   -20.102158  -0.23344942 
  370500   0.95670467   -21.551815            0   -20.116759  -0.26280159 
  371000   0.95641094   -21.551539            0   -20.116923  -0.25824112 
  371500   0.95758571   -21.559848            0   -20.123471  -0.25525839 
  372000   0.95612897   -21.556475            0   -20.122283  -0.26262233 
  372500   0.95804058   -21.564699            0   -20.127639  -0.26942368 
  373000   0.95646865   -21.564319            0   -20.129617  -0.25034986 
  373500   0.95603183   -21.553032            0   -20.118985  -0.25179927 
  374000   0.95775588   -21.543735            0   -20.107102  -0.23767904 
  374500   0.95738378   -21.554169            0   -20.118095  -0.25441921 
  375000   0.95708163   -21.559931            0    -20.12431  -0.24836348 
  375500   0.95751185   -21.553933            0   -20.117666  -0.24015023 
  376000   0.95730235   -21.550864            0   -20.114911  -0.24075937 
  376500   0.95860197   -21.551136            0   -20.113234  -0.22990495 
  377000   0.95631886   -21.547699            0   -20.113221   -0.2454503 
  377500    0.9558865    -21.56472            0   -20.130891  -0.25049218 
  378000   0.95695706   -21.557024            0   -20.121589  -0.24961362 
  378500   0.95650679   -21.556125            0   -20.121366  -0.25969077 
  379000   0.95742935   -21.551685            0   -20.115542  -0.23686346 
  379500   0.95698308   -21.551762            0   -20.116288  -0.24833933 
  380000   0.95707291   -21.551556            0   -20.115947  -0.26041168 
  380500   0.95633728   -21.552398            0   -20.117894  -0.22162397 
  381000   0.95641466   -21.562144            0   -20.127523  -0.26910314 
  381500    0.9559307   -21.553512            0   -20.119617  -0.29115168 
  382000    0.9570111   -21.554893            0   -20.119377  -0.24641632 
  382500   0.95799332   -21.552944            0   -20.115955  -0.24554247 
  383000   0.95694468   -21.560947            0   -20.125531  -0.27111914 
  383500   0.95740314   -21.547642            0   -20.111539   -0.2227408 
  384000   0.95667275   -21.556982            0   -20.121973  -0.25617898 
  384500   0.95629737   -21.553175            0    -20.11873  -0.23970461 
  385000   0.95762772   -21.555425            0   -20.118984  -0.27644208 
  385500   0.95717657   -21.553396            0   -20.117632  -0.24963056 
  386000     0.956948   -21.564542            0   -20.129121  -0.24536322 
  386500   0.95702033   -21.564673            0   -20.129144  -0.25320617 
  387000   0.95652345   -21.544989            0   -20.110205  -0.22456519 
  387500   0.95686814   -21.549754            0   -20.114453  -0.23843235 
  388000   0.95701754   -21.565556            0   -20.130031  -0.27785866 
  388500   0.95683997    -21.56148            0   -20.126221  -0.26528875 
  389000   0.95673106    -21.54977            0   -20.114674  -0.24186779 
  389500   0.95640037   -21.552843            0   -20.118243  -0.25818715 
  390000    0.9566811   -21.557862            0   -20.122842  -0.25045826 
  390500   0.95677508   -21.559148            0   -20.123986  -0.28519441 
  391000   0.95703591   -21.559348            0   -20.123795  -0.23835466 
  391500   0.95652201   -21.550587            0   -20.115805  -0.25330777 
  392000    0.9559991   -21.549553            0   -20.115556  -0.23785708 
  392500   0.95643675   -21.559704            0    -20.12505  -0.28400698 
  393000   0.95720825   -21.550178            0   -20.114366  -0.25874417 
  393500   0.95556551    -21.55514            0   -20.121793  -0.26656784 
  394000   0.95746348   -21.548017            0   -20.111823  -0.24547989 
  394500   0.95635262   -21.544929            0   -20.110401  -0.22627504 
  395000   0.95693963   -21.556484            0   -20.121076  -0.27395311 
  395500   0.95781944   -21.565248            0    -20.12852  -0.26943524 
  396000   0.95714695   -21.545566            0   -20.109847  -0.23215362 
  396500   0.95671065   -21.552707            0   -20.117642  -0.26379292 
  397000   0.95777264   -21.551634            0   -20.114976  -0.26632078 
  397500   0.95688429   -21.550631            0   -20.115306  -0.25081774 
  398000   0.95625421   -21.558707            0   -20.124326  -0.24791685 
  398500   0.95622921   -21.552012            0    -20.11767  -0.23090292 
  399000   0.95789776   -21.562898            0   -20.126052  -0.26615208 
  399500   0.95646827   -21.559473            0   -20.124772   -0.2568253 
  400000    0.9573615   -21.553758            0   -20.117717  -0.27564116 
  400500   0.95657198   -21.541276            0   -20.106419  -0.24721381 
  401000   0.95758114   -21.543984            0   -20.107613  -0.25328842 
  401500   0.95604035   -21.556949            0   -20.122889  -0.27516002 
  402000    0.9573662   -21.559204            0   -20.123156  -0.27312626 
  402500   0.95751701   -21.559063            0   -20.122788  -0.24827787 
  403000   0.95646203   -21.551678            0   -20.116986  -0.24664224 
  403500   0.95604502   -21.552095            0   -20.118028  -0.24285348 
  404000   0.95661806   -21.550223            0   -20.115297  -0.22998708 
  404500   0.95682711   -21.553832            0   -20.118592  -0.24913243 
  405000   0.95758214   -21.544538            0   -20.108166  -0.24786419 
  405500   0.95591166   -21.545336            0    -20.11147  -0.24061107 
  406000   0.95604729   -21.550579            0   -20.116509  -0.27631572 
  406500   0.95574473   -21.556129            0   -20.122513  -0.24459554 
  407000   0.95823569   -21.547556            0   -20.110204  -0.22054145 
  407500    0.9575547   -21.547438            0   -20.111107  -0.23809292 
  408000   0.95700902   -21.547665            0   -20.112152  -0.23562593 
  408500   0.95623184   -21.558654            0   -20.124308  -0.23925508 
  409000    0.9569786   -21.553575            0   -20.118108    -0.261587 
  409500   0.95653343   -21.546971            0   -20.112172  -0.25756591 
  410000   0.95680602   -21.552165            0   -20.116957  -0.22889842 
  410500   0.95760907   -21.558145            0   -20.121733  -0.26518342 
  411000   0.95688359   -21.558102            0   -20.122777  -0.22906626 
  411500   0.95692471   -21.559144            0   -20.123758  -0.23403241 
  412000   0.95651036   -21.543837            0   -20.109072  -0.23988508 
  412500   0.95761396   -21.549365            0   -20.112945  -0.24646405 
  413000   0.95651157   -21.561813            0   -20.127046  -0.25808537 
  413500   0.95675736   -21.554011            0   -20.118876  -0.26464674 
  414000   0.95697359   -21.545903            0   -20.110443  -0.23981558 
  414500   0.95689435   -21.563011            0    -20.12767  -0.25611891 
  415000   0.95724596   -21.562434            0   -20.126566  -0.25275839 
  415500    0.9566297   -21.558018            0   -20.123075  -0.25054548 
  416000   0.95724299   -21.557186            0   -20.121322  -0.24853118 
  416500   0.95688226   -21.552198            0   -20.116875  -0.24192976 
  417000   0.95751532   -21.546761            0   -20.110489  -0.24605828 
  417500   0.95574278   -21.550099            0   -20.116486  -0.26001549 
  418000   0.95876396   -21.544573            0   -20.106428  -0.24617878 
  418500   0.95778488   -21.553649            0   -20.116973  -0.25000144 
  419000   0.95703335    -21.55304            0    -20.11749  -0.26475492 
  419500   0.95660251   -21.550101            0   -20.115198  -0.23317238 
  420000   0.95641466   -21.553774            0   -20.119153  -0.24760013 
  420500   0.95612672   -21.559123            0   -20.124934  -0.25047857 
  421000   0.95588032   -21.553424            0   -20.119605  -0.25031518 
  421500    0.9573968   -21.553613            0   -20.117519  -0.24708941 
  422000   0.95651125   -21.543473            0   -20.108707  -0.23559759 
  422500    0.9570058   -21.550639            0   -20.115131  -0.24570338 
  423000    0.9572351   -21.566912            0   -20.131061  -0.28065211 
  423500   0.95760553   -21.549785            0   -20.113378  -0.23064617 
  424000   0.95705539   -21.555667            0   -20.120084  -0.25390445 
  424500   0.95735586   -21.562872            0   -20.126839  -0.25936522 
  425000   0.95711544   -21.548066            0   -20.112394  -0.26078584 
  425500   0.95637017   -21.546472            0   -20.111918   -0.2673853 
  426000   0.95764646   -21.541615            0   -20.105146  -0.25148893 
  426500   0.95663338   -21.549291            0   -20.114342  -0.24125277 
  427000   0.95652803   -21.549907            0   -20.115116  -0.26497463 
  427500   0.95711908   -21.562342            0   -20.126664  -0.27227358 
  428000    0.9575238   -21.553116            0   -20.116831  -0.23265255 
  428500   0.95728948   -21.541454            0   -20.105521  -0.21277092 
  429000   0.95684136   -21.539929            0   -20.104668  -0.25393196 
  429500   0.95680104   -21.557232            0   -20.122031  -0.26515448 
  430000   0.95603161   -21.563237            0   -20.129191  -0.27960354 
  430500   0.95684683    -21.56278            0   -20.127511  -0.26015867 
  431000   0.95625788    -21.53749            0   -20.103104  -0.22539477 
  431500   0.95716003   -21.543977            0   -20.108238  -0.24618794 
  432000   0.95813657   -21.549442            0   -20.112238  -0.24846933 
  432500   0.95690359   -21.547584            0    -20.11223  -0.24496452 
  433000   0.95656058   -21.554421            0   -20.119581  -0.25901411 
  433500   0.95693797   -21.542822            0   -20.107416  -0.25521538 
  434000   0.95732596   -21.554627            0   -20.118639  -0.24831467 
  434500   0.95851331   -21.544057            0   -20.106288  -0.24616681 
  435000    0.9573796   -21.550117            0   -20.114049  -0.24149897 
  435500   0.95681906   -21.544966            0   -20.109739  -0.22971645 
  436000   0.95763407   -21.555409            0   -20.118959  -0.23138813 
  436500   0.95621399    -21.55882            0     -20.1245   -0.2678147 
  437000   0.95653183    -21.54525            0   -20.110454  -0.26308437 
  437500   0.95693243   -21.548981            0   -20.113584   -0.2126211 
  438000   0.95706851     -21.5452            0   -20.109598  -0.24946739 
  438500   0.95726206   -21.558987            0   -20.123094  -0.26386558 
  439000   0.95543258   -21.545216            0   -20.112068  -0.25016737 
  439500   0.95610242   -21.544839            0   -20.110687  -0.27183184 
  440000   0.95776463    -21.56026            0   -20.123614  -0.27796433 
  440500    0.9575798   -21.553812            0   -20.117444  -0.24160855 
  441000   0.95765461   -21.555575            0   -20.119094  -0.23742868 
  441500   0.95725293   -21.552334            0   -20.116455  -0.24362965 
  442000   0.95659804   -21.550294            0   -20.115398  -0.23165854 
  442500   0.95739443    -21.55402            0    -20.11793  -0.25567839 
  443000   0.95753417    -21.54545            0    -20.10915  -0.23338226 
  443500   0.95798761   -21.539854            0   -20.102873  -0.22976396 
  444000   0.95650217   -21.546317            0   -20.111564  -0.26404244 
  444500   0.95703409   -21.550453            0   -20.114903  -0.26048437 
  445000   0.95662157   -21.544042            0    -20.10911  -0.22977378 
  445500   0.95718433   -21.547519            0   -20.111743  -0.24164794 
  446000   0.95715445   -21.548238            0   -20.112507  -0.23911848 
  446500   0.95651787   -21.552989            0   -20.118213  -0.26478027 
  447000   0.95695072   -21.555752            0   -20.120327  -0.24503347 
  447500   0.95727967   -21.552948            0    -20.11703  -0.27159239 
  448000   0.95630247   -21.549116            0   -20.114663  -0.24298864 
  448500   0.95652392   -21.544863            0   -20.110078  -0.25601832 
  449000   0.95736168   -21.558834            0   -20.122792  -0.25797654 
  449500   0.95646752   -21.547224            0   -20.112524  -0.23420651 
  450000   0.95746576   -21.545076            0   -20.108879  -0.22430774 
  450500   0.95685221    -21.55701            0   -20.121733  -0.24413657 
  451000   0.95636573   -21.549353            0   -20.114805  -0.25166786 
  451500   0.95631031   -21.548032            0   -20.113568  -0.24579842 
  452000   0.95691786   -21.559214            0   -20.123838  -0.24527809 
  452500   0.95688777   -21.550317            0   -20.114986  -0.22914505 
  453000   0.95710214   -21.553463            0   -20.117811  -0.23237372 
  453500   0.95690271   -21.565852            0   -20.130499   -0.2363114 
  454000   0.95748649   -21.559846            0   -20.123617  -0.24669894 
  454500   0.95609207   -21.547383            0   -20.113246  -0.21749232 
  455000   0.95775037   -21.543198            0   -20.106573   -0.2400623 
  455500   0.95649326   -21.555326            0   -20.120587  -0.23427445 
  456000   0.95734559   -21.551192            0   -20.115174  -0.27288577 
  456500    0.9560591   -21.563223            0   -20.129135  -0.24786457 
  457000    0.9578364   -21.549281            0   -20.112527  -0.24063301 
  457500   0.95758316   -21.548933            0   -20.112559  -0.23777738 
  458000   0.95730672   -21.547602            0   -20.111643  -0.25560703 
  458500   0.95655734   -21.551434            0   -20.116599   -0.2355941 
  459000   0.95618336   -21.558878            0   -20.124604  -0.28742791 
  459500   0.95681732   -21.544252            0   -20.109027   -0.2274775 
  460000   0.95576434   -21.542059            0   -20.108414  -0.26446638 
  460500   0.95584889   -21.555081            0   -20.121309  -0.25140631 
  461000   0.95571013   -21.546523            0   -20.112959  -0.27468362 
  461500   0.95760145   -21.546491            0    -20.11009  -0.23784588 
  462000    0.9566783   -21.558466            0    -20.12345  -0.25804572 
  462500   0.95689345    -21.55063            0   -20.115291  -0.24006929 
  463000   0.95555162   -21.543567            0   -20.110241  -0.24928255 
  463500    0.9561895   -21.554419            0   -20.120136  -0.22948746 
  464000   0.95674413   -21.550174            0   -20.115059  -0.25148961 
  464500   0.95586109   -21.542563            0   -20.108772  -0.26238304 
  465000   0.95737221   -21.544787            0   -20.108729  -0.23579161 
  465500    0.9572384     -21.5466            0   -20.110744  -0.23743837 
  466000   0.95666699    -21.55115            0   -20.116151  -0.24493952 
  466500   0.95738105   -21.556465            0   -20.120394  -0.26371046 
  467000   0.95663144   -21.561399            0   -20.126453   -0.2608959 
  467500   0.95604611    -21.54815            0   -20.114081   -0.2487785 
  468000   0.95584893   -21.553619            0   -20.119846  -0.24663353 
  468500   0.95627987   -21.540446            0   -20.106027   -0.2253445 
  469000    0.9553294   -21.551143            0    -20.11815  -0.24669184 
  469500   0.95681148   -21.554229            0   -20.119013  -0.27224521 
  470000   0.95723823   -21.548776            0    -20.11292  -0.25535218 
  470500   0.95706491    -21.54985            0   -20.114254  -0.27980929 
  471000   0.95714816    -21.53801            0   -20.102288  -0.21855714 
  471500   0.95824467   -21.545018            0   -20.107652   -0.2434255 
  472000   0.95723433   -21.557179            0   -20.121328  -0.24931711 
  472500   0.95604434   -21.551697            0   -20.117632  -0.23379111 
  473000   0.95708504   -21.546267            0    -20.11064  -0.24765117 
  473500   0.95589412   -21.551893            0   -20.118052  -0.24594243 
  474000   0.95675937   -21.550136            0   -20.114998  -0.23304118 
  474500   0.95540779   -21.566224            0   -20.133113  -0.25354753 
  475000   0.95776973   -21.549498            0   -20.112844  -0.23658277 
  475500   0.95771295   -21.551269            0     -20.1147  -0.23231094 
  476000   0.95757726   -21.553047            0   -20.116682   -0.2513432 
  476500   0.95657855   -21.548102            0   -20.113235  -0.23017248 
  477000   0.95626689   -21.547855            0   -20.113455   -0.2589645 
  477500   0.95688292   -21.545145            0   -20.109821  -0.26669407 
  478000   0.95700845   -21.544246            0   -20.108735   -0.2393733 
  478500   0.95676149   -21.537467            0   -20.102325  -0.23388872 
  479000   0.95643929   -21.549853            0   -20.115195  -0.25447815 
  479500   0.95677759   -21.543821            0   -20.108656  -0.25979144 
  480000   0.95770956   -21.551445            0   -20.114882  -0.24953672 
  480500   0.95725455   -21.547662            0   -20.111782  -0.23064201 
  481000   0.95758155   -21.547396            0   -20.111025  -0.24779299 
  481500     0.957706   -21.551001            0   -20.114443  -0.25426278 
  482000   0.95672737   -21.564514            0   -20.129424  -0.24084858 
  482500   0.95706728   -21.545171            0   -20.109571  -0.21819419 
  483000    0.9565453   -21.541278            0   -20.106461  -0.21566997 
  483500   0.95690181   -21.542945            0   -20.107594  -0.24044437 
  484000   0.95702285   -21.548444            0   -20.112911  -0.24228188 
  484500   0.95710178   -21.547656            0   -20.112004  -0.23393336 
  485000   0.95695481     -21.5479            0   -20.112469   -0.2613136 
  485500   0.95737592   -21.554062            0   -20.117999  -0.22580315 
  486000   0.95736841   -21.541898            0   -20.105846  -0.23010336 
  486500   0.95651632   -21.543123            0   -20.108349  -0.23891795 
  487000   0.95764439   -21.550303            0   -20.113838  -0.25548527 
  487500   0.95668641   -21.552888            0    -20.11786  -0.25195326 
  488000   0.95724306   -21.548991            0   -20.113127  -0.24642431 
  488500   0.95750072   -21.544749            0   -20.108499  -0.24648524 
  489000   0.95733782   -21.552257            0   -20.116251  -0.25417233 
  489500   0.95633897   -21.549289            0   -20.114782  -0.24075338 
  490000    0.9558378   -21.539591            0   -20.105836  -0.23660243 
  490500   0.95658342   -21.546746            0   -20.111872  -0.21575963 
  491000    0.9562711   -21.555598            0   -20.121192  -0.25270884 
  491500   0.95653817   -21.552148            0   -20.117342  -0.22863058 
  492000   0.95649748   -21.554714            0   -20.119969  -0.23415447 
  492500   0.95643988   -21.551258            0   -20.116599  -0.24439013 
  493000   0.95726626    -21.55596            0   -20.120062  -0.25175469 
  493500   0.95762906   -21.560176            0   -20.123733  -0.25463919 
  494000   0.95674942   -21.552698            0   -20.117575  -0.25635999 
  494500   0.95801256   -21.532713            0   -20.095695  -0.22774556 
  495000   0.95665328   -21.552555            0   -20.117576  -0.24251363 
  495500   0.95688887   -21.547789            0   -20.112457  -0.24104376 
  496000   0.95603638   -21.550333            0   -20.116279  -0.24788069 
  496500   0.95740296    -21.55495            0   -20.118847  -0.21639795 
  497000   0.95645555   -21.542562            0    -20.10788  -0.23785944 
  497500   0.95709355   -21.551123            0   -20.115484  -0.26228069 
  498000   0.95824562   -21.553485            0   -20.116118    -0.255501 
  498500   0.95689282   -21.551034            0   -20.115696  -0.26079226 
  499000   0.95603976   -21.534666            0   -20.100608  -0.25646398 
  499500   0.95596835   -21.553114            0   -20.119162  -0.27037002 
  500000   0.95779312   -21.546555            0   -20.109867   -0.2108472 
  500500   0.95626802   -21.557079            0   -20.122678  -0.25743123 
  501000   0.95604123   -21.558109            0   -20.124048  -0.26936755 
  501500   0.95767326    -21.54315            0   -20.106641  -0.25883688 
  502000    0.9572452   -21.544116            0   -20.108249  -0.27421168 
  502500   0.95698952   -21.547899            0   -20.112415  -0.24634244 
  503000   0.95689549   -21.553079            0   -20.117737  -0.25997206 
  503500   0.95558217   -21.544335            0   -20.110963   -0.2413404 
  504000   0.95778794   -21.540172            0   -20.103491   -0.2499682 
  504500   0.95633298    -21.54853            0   -20.114031  -0.24732259 
  505000   0.95614768   -21.557486            0   -20.123266  -0.26316034 
  505500   0.95725847   -21.544925            0   -20.109038  -0.24121817 
  506000    0.9569498   -21.555364            0    -20.11994  -0.25324846 
  506500   0.95754238   -21.551164            0   -20.114851  -0.22209542 
  507000   0.95797102    -21.54423            0   -20.107274  -0.25137549 
  507500   0.95709029    -21.54692            0   -20.111286  -0.24135866 
  508000   0.95546846   -21.546728            0   -20.113526  -0.26946234 
  508500   0.95716781   -21.552885            0   -20.117134  -0.25861826 
  509000   0.95665816   -21.555225            0   -20.120238  -0.23657396 
  509500   0.95776712   -21.555769            0    -20.11912  -0.24626129 
  510000   0.95685407   -21.551631            0   -20.116351  -0.26664967 
  510500   0.95758895   -21.550744            0   -20.114362  -0.23926591 
  511000   0.95702739   -21.556962            0   -20.121422  -0.24070848 
  511500   0.95625792    -21.54686            0   -20.112474  -0.26303146 
  512000   0.95708757   -21.545655            0   -20.110025  -0.24257025 
  512500   0.95616885   -21.551814            0   -20.117562  -0.26441861 
  513000   0.95757751   -21.541603            0   -20.105238  -0.21150803 
  513500   0.95561163   -21.542608            0   -20.109192  -0.24425484 
  514000   0.95806403   -21.556162            0   -20.119066  -0.26725367 
  514500   0.95592155   -21.552796            0   -20.118914  -0.27094422 
  515000   0.95682298   -21.549407            0   -20.114173  -0.26007776 
  515500   0.95612957   -21.544974            0   -20.110781  -0.23903459 
  516000   0.95772742   -21.547665            0   -20.111075  -0.24812228 
  516500   0.95702383   -21.535008            0   -20.099473  -0.20659533 
  517000   0.95694615   -21.534758            0    -20.09934   -0.2207894 
  517500   0.95704862   -21.550266            0   -20.114694  -0.23618782 
  518000   0.95743583   -21.553381            0   -20.117228  -0.25554207 
  518500    0.9562544   -21.552013            0   -20.117633  -0.24365941 
[...]
  836000   0.95724373   -21.555074            0   -20.119209  -0.27981605 
  836500   0.95641881   -21.542555            0   -20.107928  -0.23095846 
  837000   0.95735856   -21.537089            0   -20.101052   -0.2250794 
  837500    0.9578564   -21.541116            0   -20.104333  -0.28914845 
  838000    0.9571866   -21.538423            0   -20.102644  -0.24688729 
  838500   0.95606456   -21.545549            0   -20.111454  -0.26544403 
  839000   0.95742542   -21.536727            0    -20.10059  -0.24652208 
  839500   0.95655248   -21.542085            0   -20.107258  -0.23905733 
  840000   0.95761837   -21.546925            0   -20.110498  -0.26058648 
  840500   0.95692692   -21.541867            0   -20.106478  -0.22282061 
  841000   0.95698282   -21.544169            0   -20.108696   -0.2636184 
  841500    0.9571187   -21.544034            0   -20.108357  -0.26668878 
  842000   0.95754878   -21.549476            0   -20.113154  -0.26800649 
  842500   0.95614428   -21.544635            0   -20.110419   -0.2490786 
  843000   0.95722339   -21.536861            0   -20.101027   -0.2543962 
  843500   0.95794771    -21.54855            0   -20.111629  -0.26202596 
  844000   0.95608341   -21.558855            0   -20.124731   -0.2710272 
  844500   0.95698351   -21.549709            0   -20.114235  -0.25701805 
  845000   0.95695031   -21.547132            0   -20.111707  -0.24661619 
  845500   0.95709342   -21.537334            0   -20.101695  -0.23770464 
  846000   0.95735432   -21.541363            0   -20.105333  -0.22944772 
  846500   0.95672869   -21.556978            0   -20.121885  -0.28124925 
  847000   0.95642971   -21.541227            0   -20.106583  -0.22496897 
  847500   0.95722027   -21.544641            0   -20.108812  -0.25474003 
  848000   0.95647822   -21.536133            0   -20.101416  -0.24798933 
  848500   0.95766394   -21.544924            0   -20.108429  -0.26269484 
  849000   0.95728646   -21.546286            0   -20.110357  -0.27325055 
  849500   0.95714346   -21.538016            0   -20.102302  -0.24957022 
  850000   0.95651016    -21.53491            0   -20.100146  -0.25156391 
  850500   0.95698768    -21.53682            0    -20.10134  -0.24509531 
  851000   0.95724927   -21.540422            0   -20.104549  -0.25786437 
  851500   0.95746167   -21.532655            0   -20.096464  -0.24712144 
  852000   0.95612976   -21.547064            0   -20.112871  -0.25678776 
  852500   0.95808206    -21.55516            0   -20.118038  -0.26296879 
  853000   0.95663968   -21.558376            0   -20.123417  -0.26343959 
  853500   0.95764194   -21.537494            0   -20.101033  -0.24465343 
  854000   0.95695003   -21.547637            0   -20.112213  -0.25451742 
  854500   0.95621584   -21.543334            0   -20.109011  -0.26904422 
  855000   0.95690089   -21.543992            0   -20.108642  -0.25118615 
  855500   0.95567682   -21.546394            0   -20.112879  -0.26140497 
  856000   0.95642828   -21.538092            0   -20.103451  -0.25806058 
  856500   0.95797664   -21.543431            0   -20.106467  -0.25825521 
  857000   0.95707258   -21.550894            0   -20.115286  -0.25346973 
  857500   0.95674617   -21.560724            0   -20.125606  -0.26273007 
  858000   0.95712588   -21.558827            0   -20.123139  -0.28611374 
  858500   0.95603978   -21.544413            0   -20.110354  -0.25601457 
  859000   0.95743287   -21.543582            0   -20.107433  -0.24592484 
  859500   0.95707857   -21.555326            0    -20.11971  -0.28040409 
  860000   0.95649888   -21.545498            0   -20.110751  -0.25740898 
  860500   0.95601663   -21.538071            0   -20.104047   -0.2409569 
  861000   0.95749351   -21.533631            0   -20.097392  -0.23009961 
  861500    0.9568938   -21.534834            0   -20.099494  -0.24342986 
  862000   0.95731762   -21.544046            0    -20.10807  -0.25196112 
  862500   0.95700021   -21.538674            0   -20.103175  -0.24125294 
  863000   0.95704445   -21.539766            0     -20.1042   -0.2573755 
  863500    0.9565009   -21.550775            0   -20.116025   -0.2537603 
  864000   0.95702064   -21.545352            0   -20.109822  -0.26315549 
  864500   0.95596539   -21.542454            0   -20.108507  -0.25907554 
  865000   0.95619927    -21.53452            0   -20.100222  -0.24388659 
  865500   0.95692628    -21.53472            0   -20.099331  -0.23977155 
  866000   0.95659064   -21.540776            0   -20.105891  -0.29281938 
  866500   0.95607252   -21.545993            0   -20.111885  -0.25696571 
  867000   0.95714671   -21.534812            0   -20.099093  -0.22098988 
  867500   0.95678495   -21.537861            0   -20.102684  -0.23975977 
  868000   0.95722813   -21.547602            0   -20.111761   -0.2711879 
  868500   0.95568934   -21.549433            0     -20.1159  -0.26562302 
  869000   0.95793869    -21.54979            0   -20.112883   -0.2614701 
  869500    0.9577426   -21.531025            0   -20.094412  -0.24847696 
  870000   0.95665915   -21.535199            0   -20.100211  -0.23822822 
  870500   0.95712872   -21.548974            0   -20.113282  -0.27749601 
  871000   0.95768482   -21.532772            0   -20.096246   -0.2384552 
  871500   0.95662985   -21.543611            0   -20.108667    -0.220799 
  872000   0.95651993   -21.539683            0   -20.104904  -0.25442403 
  872500   0.95717178   -21.537774            0   -20.102017  -0.26277356 
  873000   0.95619844   -21.537188            0   -20.102892  -0.24637227 
  873500   0.95656492   -21.554083            0   -20.119237  -0.29266431 
  874000   0.95682764   -21.550996            0   -20.115756  -0.27100554 
  874500   0.95644663   -21.538331            0   -20.103662  -0.23660757 
  875000   0.95712814   -21.537679            0   -20.101988  -0.21919404 
  875500    0.9572435   -21.540687            0   -20.104822   -0.2475722 
  876000   0.95707034   -21.554708            0   -20.119104  -0.26927561 
  876500   0.95721006   -21.538381            0   -20.102567  -0.24456423 
  877000   0.95648172   -21.546144            0   -20.111422  -0.24114683 
  877500   0.95767805   -21.542547            0   -20.106031  -0.24876265 
  878000   0.95647742   -21.542132            0   -20.107417  -0.25744655 
  878500   0.95616568   -21.545577            0   -20.111329  -0.27034589 
  879000   0.95703517   -21.527628            0   -20.092077  -0.22271234 
  879500   0.95681156   -21.543316            0   -20.108099  -0.24219904 
  880000   0.95671109   -21.548456            0    -20.11339  -0.26438146 
  880500   0.95671965   -21.545728            0    -20.11065  -0.26520738 
  881000   0.95716641   -21.541187            0   -20.105438  -0.26249922 
  881500   0.95664926   -21.544864            0   -20.109891   -0.2452576 
  882000   0.95681632   -21.550588            0   -20.115365  -0.27182074 
  882500    0.9568014   -21.539597            0   -20.104396  -0.25785672 
  883000   0.95651854   -21.532519            0   -20.097742  -0.23865319 
  883500   0.95582203   -21.544224            0   -20.110492  -0.26173114 
  884000   0.95654266   -21.549197            0   -20.114384  -0.27367087 
  884500   0.95723331   -21.549344            0   -20.113495  -0.26796355 
  885000   0.95748647   -21.536048            0   -20.099819  -0.22926197 
  885500   0.95703357   -21.540861            0   -20.105312  -0.22466185 
  886000   0.95737889   -21.547753            0   -20.111685  -0.23748135 
  886500   0.95655187   -21.540718            0   -20.105891  -0.22900119 
  887000   0.95653006   -21.542093            0   -20.107299  -0.26648276 
  887500   0.95693746    -21.53868            0   -20.103275  -0.25970965 
  888000   0.95647048    -21.53661            0   -20.101905  -0.26767437 
  888500   0.95722559   -21.540065            0   -20.104228  -0.24027865 
  889000   0.95771503   -21.533804            0   -20.097232  -0.23063841 
  889500   0.95566173   -21.547971            0   -20.114479  -0.27544993 
  890000   0.95725446   -21.547475            0   -20.111595  -0.27234339 
  890500   0.95719764   -21.551481            0   -20.115685   -0.2710597 
  891000   0.95804918   -21.554115            0   -20.117042  -0.24730612 
  891500   0.95678304   -21.542488            0   -20.107314  -0.24890121 
  892000   0.95723227   -21.545651            0   -20.109803  -0.24796776 
  892500   0.95546007   -21.548266            0   -20.115077  -0.24812208 
  893000   0.95616857   -21.552915            0   -20.118663  -0.26711869 
  893500   0.95689742   -21.546235            0   -20.110889  -0.28291436 
  894000   0.95558363   -21.538181            0   -20.104807  -0.23162994 
  894500   0.95749737    -21.53902            0   -20.102775  -0.25785536 
  895000   0.95696313   -21.544048            0   -20.108604   -0.2643897 
  895500   0.95637398   -21.539455            0   -20.104895  -0.25513613 
  896000   0.95686265   -21.532019            0   -20.096726  -0.24470654 
  896500   0.95733544   -21.531512            0    -20.09551  -0.25110953 
  897000   0.95703748   -21.539545            0    -20.10399  -0.26511816 
  897500   0.95721381   -21.535007            0   -20.099188   -0.2287439 
  898000   0.95770874    -21.53707            0   -20.100508  -0.23666431 
  898500   0.95632969   -21.543851            0   -20.109357  -0.22948287 
  899000   0.95731374   -21.540597            0   -20.104628  -0.22374136 
  899500   0.95617827   -21.541376            0   -20.107109  -0.24754081 
  900000   0.95717749   -21.540317            0   -20.104552  -0.24951757 
  900500   0.95614836   -21.543631            0   -20.109409  -0.25626349 
  901000   0.95761039   -21.530253            0   -20.093838  -0.24658251 
  901500   0.95688826   -21.540498            0   -20.105167  -0.24923658 
  902000   0.95656097   -21.554884            0   -20.120044  -0.24313778 
  902500   0.95721133   -21.531306            0    -20.09549  -0.23912912 
  903000   0.95836507   -21.535894            0   -20.098347  -0.23439696 
  903500    0.9568115   -21.543024            0   -20.107807  -0.27576639 
  904000   0.95611447   -21.537384            0   -20.103213  -0.25216809 
  904500   0.95696565   -21.533353            0   -20.097905  -0.24550158 
  905000   0.95699548   -21.542259            0   -20.106766  -0.24280862 
  905500   0.95650052   -21.535066            0   -20.100316  -0.21904402 
  906000   0.95684578   -21.552591            0   -20.117324  -0.26138631 
  906500    0.9572851   -21.546734            0   -20.110807  -0.23790052 
  907000   0.95653952   -21.538973            0   -20.104164  -0.26089984 
  907500    0.9564758   -21.557328            0   -20.122615  -0.26969716 
  908000   0.95626631   -21.543529            0   -20.109131  -0.26616817 
  908500   0.95762204   -21.549468            0   -20.113036  -0.25636995 
  909000   0.95689075   -21.531134            0   -20.095799  -0.21413673 
  909500   0.95723275    -21.53747            0   -20.101622  -0.25840743 
  910000   0.95651285   -21.535931            0   -20.101163  -0.24212831 
  910500   0.95632446   -21.545167            0   -20.110681  -0.26232224 
  911000   0.95710234   -21.540131            0   -20.104478  -0.26567114 
  911500   0.95772375   -21.535461            0   -20.098876    -0.218388 
  912000   0.95647359   -21.540806            0   -20.106096   -0.2547036 
  912500   0.95772969   -21.542351            0   -20.105757  -0.24942224 
  913000   0.95731607   -21.533877            0   -20.097904  -0.24315433 
  913500    0.9567481    -21.54569            0   -20.110569  -0.24107987 
  914000   0.95654817   -21.537517            0   -20.102696  -0.23863264 
  914500   0.95728529   -21.536447            0   -20.100521  -0.24594755 
  915000   0.95733113   -21.538807            0   -20.102811  -0.25494429 
  915500   0.95631478   -21.545052            0   -20.110581   -0.2683484 
  916000   0.95659585   -21.539519            0   -20.104627  -0.26740538 
  916500   0.95708988   -21.534496            0   -20.098862  -0.22406115 
  917000   0.95709808   -21.541672            0   -20.106026  -0.25063275 
  917500   0.95696154   -21.531646            0   -20.096205  -0.22916429 
  918000   0.95777144   -21.541144            0   -20.104488  -0.24648214 
  918500   0.95661451   -21.540043            0   -20.105123  -0.25812969 
  919000   0.95686731   -21.544731            0   -20.109431  -0.25867844 
  919500   0.95576707    -21.53564            0    -20.10199  -0.25733913 
  920000   0.95524882   -21.550942            0    -20.11807  -0.27796316 
  920500   0.95611542   -21.537841            0   -20.103669  -0.23484795 
  921000   0.95679191   -21.542029            0   -20.106842  -0.24147496 
  921500   0.95657624   -21.543646            0   -20.108783  -0.25596707 
  922000   0.95640756   -21.543284            0   -20.108674  -0.28091394 
  922500   0.95843892    -21.54054            0   -20.102882  -0.26032788 
  923000   0.95663752   -21.554472            0   -20.119516  -0.28145781 
  923500   0.95730398    -21.54855            0   -20.112595  -0.27258885 
  924000   0.95609127   -21.557103            0   -20.122967  -0.25023109 
  924500   0.95715339    -21.54262            0   -20.106891  -0.23842397 
  925000   0.95679002   -21.540374            0    -20.10519  -0.25959467 
  925500   0.95633144   -21.548609            0   -20.114113  -0.25838281 
  926000   0.95619235   -21.546376            0   -20.112088  -0.28460165 
  926500   0.95714064   -21.538347            0   -20.102637  -0.26282583 
  927000   0.95632164   -21.544201            0   -20.109719  -0.25346679 
  927500   0.95666198   -21.554966            0   -20.119974  -0.27476192 
  928000   0.95623625    -21.54934            0   -20.114986   -0.2795052 
  928500   0.95636326   -21.541641            0   -20.107097  -0.22940624 
  929000   0.95680067    -21.54993            0    -20.11473  -0.23879466 
  929500   0.95761265   -21.554493            0   -20.118075  -0.26294917 
  930000   0.95684539     -21.5471            0   -20.111833   -0.2577974 
  930500   0.95702642   -21.545194            0   -20.109655  -0.24771385 
  931000   0.95662516   -21.543665            0   -20.108728  -0.26894702 
  931500   0.95592813   -21.551464            0   -20.117573  -0.28252426 
  932000   0.95665088   -21.542866            0    -20.10789  -0.24146355 
  932500   0.95657806   -21.548436            0    -20.11357  -0.26564637 
  933000   0.95672056   -21.540934            0   -20.105854  -0.23848976 
  933500   0.95720423   -21.535443            0   -20.099638  -0.22247995 
  934000   0.95676155   -21.548497            0   -20.113356  -0.23512609 
  934500   0.95728169   -21.550088            0   -20.114166  -0.25239378 
  935000   0.95634908   -21.547529            0   -20.113007  -0.27068158 
  935500   0.95604884   -21.536097            0   -20.102025  -0.26786174 
  936000   0.95664877    -21.55066            0   -20.115688  -0.25152926 
  936500   0.95713047   -21.546022            0   -20.110328  -0.23477728 
  937000   0.95634211   -21.535686            0   -20.101174   -0.2299796 
  937500   0.95740469   -21.537585            0   -20.101479  -0.26094229 
  938000   0.95688299   -21.541594            0   -20.106271  -0.25767863 
  938500   0.95747574   -21.542386            0   -20.106174  -0.23454302 
  939000   0.95712467    -21.54036            0   -20.104674  -0.25199223 
  939500   0.95706805   -21.540632            0    -20.10503  -0.25394071 
  940000   0.95545938   -21.549503            0   -20.116315  -0.24036112 
  940500   0.95546142   -21.523285            0   -20.090094  -0.22681213 
  941000   0.95636188   -21.540977            0   -20.106435  -0.25590499 
  941500   0.95534419   -21.563928            0   -20.130913  -0.29287688 
  942000    0.9558259   -21.545365            0   -20.111627   -0.2502475 
  942500   0.95614645   -21.541079            0   -20.106861   -0.2300585 
  943000    0.9574291   -21.539906            0   -20.103764  -0.25107441 
  943500   0.95760257   -21.550839            0   -20.114436  -0.24142423 
  944000   0.95749379   -21.543715            0   -20.107475   -0.2648665 
  944500   0.95711005   -21.535321            0   -20.099657  -0.23058664 
  945000    0.9579062    -21.54344            0   -20.106582  -0.23234393 
  945500   0.95662321   -21.553692            0   -20.118759  -0.27734413 
  946000   0.95646916   -21.539788            0   -20.105085  -0.24787264 
  946500    0.9574403   -21.549656            0   -20.113496   -0.2480861 
  947000    0.9577091   -21.543101            0   -20.106539  -0.25146907 
  947500   0.95666187   -21.559702            0    -20.12471  -0.25239603 
  948000   0.95718128   -21.545181            0    -20.10941  -0.27490838 
  948500   0.95650676   -21.543301            0   -20.108542  -0.25995844 
  949000   0.95682544   -21.540318            0    -20.10508  -0.24152191 
  949500   0.95687019   -21.558265            0   -20.122961  -0.26615563 
  950000   0.95755043   -21.549417            0   -20.113092  -0.26609294 
  950500   0.95768253   -21.542076            0   -20.105553  -0.26932873 
  951000   0.95664071   -21.543455            0   -20.108495  -0.24128161 
  951500   0.95687565   -21.556242            0   -20.120929  -0.27892886 
  952000   0.95594671   -21.553594            0   -20.119675  -0.28473337 
  952500   0.95785942   -21.562851            0   -20.126063  -0.24812942 
  953000   0.95683315   -21.546008            0   -20.110759  -0.27080088 
  953500   0.95767055   -21.547416            0   -20.110911  -0.25531786 
  954000   0.95659048   -21.549993            0   -20.115108  -0.28376626 
  954500   0.95705699   -21.542394            0    -20.10681  -0.25600494 
  955000   0.95781376   -21.542399            0    -20.10568  -0.24812504 
  955500   0.95786003   -21.546363            0   -20.109574  -0.26138945 
  956000   0.95636069   -21.546481            0   -20.111941  -0.30230378 
  956500   0.95617218   -21.546188            0   -20.111931  -0.25042884 
  957000   0.95600005   -21.559115            0   -20.125115  -0.30606548 
  957500   0.95667454   -21.539709            0   -20.104698  -0.23770485 
  958000   0.95742582   -21.542915            0   -20.106777  -0.23753802 
  958500   0.95746709   -21.548747            0   -20.112547  -0.26427343 
  959000   0.95715739   -21.551088            0   -20.115353  -0.25775145 
  959500   0.95699559    -21.55411            0   -20.118617  -0.28692639 
  960000   0.95648635   -21.542861            0   -20.108132  -0.25043839 
  960500   0.95732729   -21.548611            0   -20.112621  -0.25279536 
  961000   0.95756084   -21.535412            0   -20.099072  -0.26234811 
  961500   0.95634672   -21.540736            0   -20.106217  -0.23570787 
  962000   0.95739103   -21.552547            0   -20.116461  -0.25243039 
  962500   0.95683744   -21.541724            0   -20.106469  -0.23189562 
  963000   0.95594327   -21.538671            0   -20.104757  -0.25154985 
  963500   0.95636088   -21.533034            0   -20.098493  -0.21791993 
  964000   0.95720316   -21.537612            0   -20.101808  -0.23493016 
  964500   0.95719564   -21.550396            0   -20.114603  -0.27562062 
  965000   0.95576014    -21.55174            0   -20.118101  -0.26638807 
  965500   0.95710685   -21.543431            0   -20.107772  -0.25347526 
  966000   0.95763849     -21.5391            0   -20.102644   -0.2588205 
  966500    0.9556383   -21.547857            0     -20.1144  -0.26079796 
  967000   0.95751899   -21.552311            0   -20.116033  -0.27388067 
  967500   0.95631806   -21.544146            0    -20.10967  -0.26534478 
  968000    0.9565209   -21.539513            0   -20.104732  -0.26922968 
  968500   0.95643947   -21.549556            0   -20.114897  -0.25139325 
