

units 		          lj
dimension	          3
boundary	          p p p
neighbor	          0.3 bin
neigh_modify        every 1 check yes

atom_style	        mdpd


#region     mdpd     block -25 25 -25 25 0 ${WaveLength} units box
#create_box          1 mdpd

#lattice             fcc 7.7
#region     tube     cylinder z 0 0 v_Radius INF INF
#create_atoms        1 region tube

read_data           initial_perturbed_14_80.data
Reading data file ...
  orthogonal box = (-42 -42 0) to (42 42 196.34954)
  2 by 2 by 3 MPI processor grid
  reading atoms ...
  1179775 atoms
  read_data CPU = 1.829 seconds


pair_style          hybrid/overlay mdpd/rhosum mdpd 1.0 1.0 9872598
pair_coeff          1 1 mdpd/rhosum  0.75
pair_coeff          1 1 mdpd         -80 25 18.0 1.0 0.75
mass                1 1

compute             mythermo all temp
thermo              500
thermo_modify       temp mythermo
thermo_modify       flush yes


velocity            all create 1.0 2093 loop local dist gaussian
comm_modify         vel yes
fix         mvv     all mvv/dpd 0.65

timestep            0.01

dump        mydump  all atom 100 thread_14_80.lammpstrj
dump_modify mydump scale no

dump force all custom 100 dump.force_14_80 id fx fy fz
dump vel all custom 100 dump.vel_14_80 id vx vy vz
#dump full all custom 100 dump.all id x y z vx vy vz fx fy fz

run                 70000

CITE-CITE-CITE-CITE-CITE-CITE-CITE-CITE-CITE-CITE-CITE-CITE-CITE

Your simulation uses code contributions which should be cited:

- pair mdpd command:

@Article{ZLi2013_POF,
 author = {Li, Z. and Hu, G.H. and Wang, Z.L. and Ma Y.B. and Zhou, Z.W.},
 title = {Three dimensional flow structures in a moving droplet on substrate: a dissipative particle dynamics study},
 journal = {Physics of Fluids},
 year = {2013},
 volume = {25},
 pages = {072103}
}

CITE-CITE-CITE-CITE-CITE-CITE-CITE-CITE-CITE-CITE-CITE-CITE-CITE

Generated 0 of 0 mixed pair_coeff terms from geometric mixing rule
Neighbor list info ...
  update every 1 steps, delay 10 steps, check yes
  max neighbors/atom: 2000, page size: 100000
  master list distance cutoff = 1.3
  ghost atom cutoff = 1.3
  binsize = 0.65, bins = 130 130 303
  2 neighbor lists, perpetual/occasional/extra = 2 0 0
  (1) pair mdpd/rhosum, perpetual
      attributes: full, newton on
      pair build: full/bin/atomonly
      stencil: full/bin/3d
      bin: standard
  (2) pair mdpd, perpetual, half/full from (1)
      attributes: half, newton on
      pair build: halffull/newton
      stencil: none
      bin: none
Per MPI rank memory allocation (min/avg/max) = 99.38 | 113.8 | 121.3 Mbytes
   Step          Temp          E_pair         E_mol          TotEng         Press     
         0   1             -10.586095      0             -9.0860966      7.7802975    
       500   0.97791039    -17.741128      0             -16.274264     -2.6550059    
      1000   0.97361861    -15.925933      0             -14.465506      0.39786916   
      1500   0.96584335    -16.26192       0             -14.813157     -0.18841467   
      2000   0.96532912    -16.361526      0             -14.913533     -0.32471951   
      2500   0.96293624    -16.164573      0             -14.72017      -0.01103934   
      3000   0.96203156    -16.33752       0             -14.894474     -0.29881671   
      3500   0.96282872    -16.217463      0             -14.773221     -0.094995488  
      4000   0.96310075    -16.287168      0             -14.842518     -0.22454204   
      4500   0.96217345    -16.275096      0             -14.831837     -0.20164192   
      5000   0.96325994    -16.261982      0             -14.817094     -0.16342873   
      5500   0.96221148    -16.265994      0             -14.822678     -0.17475514   
      6000   0.96162923    -16.263377      0             -14.820935     -0.19011872   
      6500   0.96363528    -16.270162      0             -14.82471      -0.20253446   
      7000   0.96385083    -16.27122       0             -14.825445     -0.18725552   
      7500   0.96262088    -16.259185      0             -14.815255     -0.17608496   
      8000   0.96309373    -16.273776      0             -14.829136     -0.1956355    
      8500   0.96265785    -16.267507      0             -14.823522     -0.17558265   
      9000   0.96432458    -16.274637      0             -14.828151     -0.23421266   
      9500   0.96277114    -16.271581      0             -14.827425     -0.18284481   
     10000   0.96260325    -16.268026      0             -14.824122     -0.2026136    
     10500   0.96360106    -16.265445      0             -14.820045     -0.21234742   
     11000   0.9631891     -16.268         0             -14.823218     -0.16969886   
     11500   0.96447046    -16.277613      0             -14.830909     -0.17922551   
     12000   0.963041      -16.267634      0             -14.823074     -0.18970836   
     12500   0.96274967    -16.267104      0             -14.822981     -0.19439192   
     13000   0.96226953    -16.267712      0             -14.824309     -0.18277217   
     13500   0.96409946    -16.277297      0             -14.831149     -0.18892742   
     14000   0.96308594    -16.265881      0             -14.821253     -0.15957328   
     14500   0.96319432    -16.277387      0             -14.832597     -0.2033949    
     15000   0.96196351    -16.258621      0             -14.815677     -0.17607765   
     15500   0.96417553    -16.277184      0             -14.830922     -0.17878488   
     16000   0.96382433    -16.264739      0             -14.819004     -0.20663392   
     16500   0.96465547    -16.262656      0             -14.815674     -0.17747345   
     17000   0.96267541    -16.270985      0             -14.826973     -0.20926468   
     17500   0.96393648    -16.272356      0             -14.826453     -0.21134345   
     18000   0.96251407    -16.268448      0             -14.824679     -0.19353955   
     18500   0.96402412    -16.268799      0             -14.822764     -0.20483561   
     19000   0.96406583    -16.273908      0             -14.827811     -0.19440922   
     19500   0.96388786    -16.276703      0             -14.830872     -0.17798071   
     20000   0.96285268    -16.265784      0             -14.821506     -0.2088042    
     20500   0.96471778    -16.269547      0             -14.822472     -0.17835024   
     21000   0.96435841    -16.274734      0             -14.828197     -0.18614021   
     21500   0.96355885    -16.267928      0             -14.822591     -0.1939788    
     22000   0.96323188    -16.266019      0             -14.821173     -0.18455697   
     22500   0.96432947    -16.257974      0             -14.811481     -0.19839591   
     23000   0.96391289    -16.279983      0             -14.834115     -0.1986998    
     23500   0.96300543    -16.272055      0             -14.827548     -0.19299583   
     24000   0.96378596    -16.261018      0             -14.81534      -0.17625588   
     24500   0.96339829    -16.264368      0             -14.819272     -0.18265436   
     25000   0.96444934    -16.263722      0             -14.81705      -0.19633285   
     25500   0.96338463    -16.264089      0             -14.819013     -0.18237376   
     26000   0.96379789    -16.272456      0             -14.82676      -0.17002181   
     26500   0.96515933    -16.266826      0             -14.819089     -0.16660623   
     27000   0.96503166    -16.284495      0             -14.836948     -0.21066176   
     27500   0.96360461    -16.259152      0             -14.813747     -0.17353539   
     28000   0.9643138     -16.25413       0             -14.807661     -0.17017402   
     28500   0.96459685    -16.264908      0             -14.818014     -0.19159144   
     29000   0.96516251    -16.271871      0             -14.824129     -0.19182507   
     29500   0.96312192    -16.273595      0             -14.828913     -0.19996868   
     30000   0.96424971    -16.26587       0             -14.819496     -0.18002246   
     30500   0.96392263    -16.26985       0             -14.823967     -0.19068046   
     31000   0.96588299    -16.261047      0             -14.812224     -0.16926143   
     31500   0.96643567    -16.272439      0             -14.822787     -0.19591237   
     32000   0.96496889    -16.266648      0             -14.819196     -0.1514234    
     32500   0.96487107    -16.270468      0             -14.823162     -0.18391334   
     33000   0.9636413     -16.266471      0             -14.82101      -0.17093259   
     33500   0.96613508    -16.270071      0             -14.82087      -0.1620692    
     34000   0.96505381    -16.272722      0             -14.825142     -0.17437409   
     34500   0.96599015    -16.258977      0             -14.809993     -0.16255375   
     35000   0.96604557    -16.2697        0             -14.820633     -0.16862553   
     35500   0.96572553    -16.271071      0             -14.822484     -0.18650188   
     36000   0.96575583    -16.26483       0             -14.816198     -0.1591229    
     36500   0.96609094    -16.264476      0             -14.815341     -0.15346621   
     37000   0.96550731    -16.262061      0             -14.813802     -0.14326652   
     37500   0.96592511    -16.275199      0             -14.826312     -0.17093519   
     38000   0.96734071    -16.270755      0             -14.819745     -0.15125854   
     38500   0.96720292    -16.264717      0             -14.813914     -0.15578239   
     39000   0.9666277     -16.255634      0             -14.805694     -0.14508941   
     39500   0.96537868    -16.252276      0             -14.804209     -0.14870747   
     40000   0.96759232    -16.262932      0             -14.811545     -0.15279979   
     40500   0.96671421    -16.264639      0             -14.814569     -0.17075952   
     41000   0.96758241    -16.267457      0             -14.816085     -0.16497221   
     41500   0.96832471    -16.260034      0             -14.807548     -0.14606851   
     42000   0.96796612    -16.264025      0             -14.812077     -0.13616417   
     42500   0.96754473    -16.263233      0             -14.811917     -0.13373174   
     43000   0.96940195    -16.255594      0             -14.801493     -0.14385084   
     43500   0.96962575    -16.26657       0             -14.812133     -0.16437721   
     44000   0.97003519    -16.264374      0             -14.809323     -0.15578273   
     44500   0.96890826    -16.241886      0             -14.788525     -0.14533519   
     45000   0.97010226    -16.262025      0             -14.806873     -0.16658455   
     45500   0.96921082    -16.256662      0             -14.802847     -0.12313464   
     46000   0.9703427     -16.251967      0             -14.796454     -0.12948914   
     46500   0.96938607    -16.261713      0             -14.807635     -0.11494222   
     47000   0.96919684    -16.256063      0             -14.802269     -0.1178628    
     47500   0.96926361    -16.259905      0             -14.80601      -0.12253585   
     48000   0.96999883    -16.261701      0             -14.806704     -0.12803636   
     48500   0.97002146    -16.261369      0             -14.806338     -0.12530491   
     49000   0.96833426    -16.258878      0             -14.806378     -0.13449288   
     49500   0.97032051    -16.256758      0             -14.801278     -0.14457821   
     50000   0.96841299    -16.262421      0             -14.809803     -0.13894136   
     50500   0.96976594    -16.259792      0             -14.805144     -0.091956471  
     51000   0.96847617    -16.25137       0             -14.798657     -0.11741511   
     51500   0.97126745    -16.254461      0             -14.797561     -0.10831588   
     52000   0.96926598    -16.259962      0             -14.806064     -0.10569147   
     52500   0.96803591    -16.262162      0             -14.810109     -0.14180497   
     53000   0.96878623    -16.266842      0             -14.813664     -0.11676639   
     53500   0.96830074    -16.276716      0             -14.824266     -0.1249227    
     54000   0.97068988    -16.266089      0             -14.810056     -0.13044297   
     54500   0.97144931    -16.265199      0             -14.808026     -0.12039903   
     55000   0.97046885    -16.253512      0             -14.79781      -0.087872903  
     55500   0.9702801     -16.265026      0             -14.809607     -0.10544962   
     56000   0.9689991     -16.265722      0             -14.812225     -0.11666087   
     56500   0.96605642    -16.265901      0             -14.816818     -0.093514935  
     57000   0.96626515    -16.260158      0             -14.810761     -0.092426894  
     57500   0.96484265    -16.26956       0             -14.822297     -0.10911428   
     58000   0.96579509    -16.267174      0             -14.818483     -0.097723395  
     58500   0.96328832    -16.263928      0             -14.818997     -0.083356269  
     59000   0.96313574    -16.274193      0             -14.82949      -0.11940576   
     59500   0.96198432    -16.273232      0             -14.830257     -0.11438281   
     60000   0.96286936    -16.274457      0             -14.830154     -0.11571978   
     60500   0.96225369    -16.275595      0             -14.832216     -0.11781163   
     61000   0.96272206    -16.270712      0             -14.82663      -0.11688077   
     61500   0.96102285    -16.266404      0             -14.824871     -0.10590296   
     62000   0.96112408    -16.266786      0             -14.825101     -0.090073563  
     62500   0.96208072    -16.277445      0             -14.834325     -0.12691056   
     63000   0.962776      -16.27677       0             -14.832607     -0.11347607   
     63500   0.96222109    -16.257598      0             -14.814267     -0.087049218  
     64000   0.96076643    -16.271723      0             -14.830575     -0.12288138   
     64500   0.96084275    -16.267503      0             -14.82624      -0.11603342   
     65000   0.96265536    -16.269781      0             -14.825799     -0.11186571   
     65500   0.96301179    -16.271578      0             -14.827062     -0.11392257   
     66000   0.96350806    -16.269915      0             -14.824654     -0.10801083   
     66500   0.96332607    -16.273677      0             -14.828689     -0.11142069   
     67000   0.9620965     -16.278547      0             -14.835404     -0.13094946   
     67500   0.96215732    -16.292567      0             -14.849332     -0.13278193   
     68000   0.96373824    -16.276536      0             -14.83093      -0.12454342   
     68500   0.96213729    -16.275434      0             -14.832229     -0.11917579   
     69000   0.96207978    -16.28397       0             -14.840851     -0.11484291   
     69500   0.9616376     -16.2706        0             -14.828145     -0.10841867   
     70000   0.96189162    -16.262719      0             -14.819883     -0.082913077  
Loop time of 30365.8 on 12 procs for 70000 steps with 1179775 atoms

Performance: 1991.716 tau/day, 2.305 timesteps/s
100.0% CPU use with 12 MPI tasks x 1 OpenMP threads

MPI task timing breakdown:
Section |  min time  |  avg time  |  max time  |%varavg| %total
---------------------------------------------------------------
Pair    | 10948      | 17613      | 22454      |3478.9 | 58.00
Neigh   | 927.03     | 2602       | 3822.7     |2257.2 |  8.57
Comm    | 1791.1     | 6067       | 10558      |4046.8 | 19.98
Output  | 504.46     | 560.78     | 665.08     | 291.1 |  1.85
Modify  | 356.15     | 1094.5     | 1596.5     |1442.8 |  3.60
Other   |            | 2428       |            |       |  8.00

Nlocal:        98314.6 ave      153478 max           0 min
Histogram: 4 0 0 0 0 0 0 0 0 8
Nghost:          19277 ave       29490 max           0 min
Histogram: 4 0 0 0 0 0 0 0 0 8
Neighs:    4.06632e+06 ave 6.27453e+06 max           0 min
Histogram: 4 0 0 0 0 0 0 0 0 8
FullNghs:  8.13265e+06 ave 1.26969e+07 max           0 min
Histogram: 4 0 0 0 0 0 0 0 0 8

Total # of neighbors = 97591792
Ave neighs/atom = 82.720681
Neighbor list builds = 7000
Dangerous builds = 7000
Total wall time: 8:26:09
