

units 		          lj
dimension	          3
boundary	          p p p
neighbor	          0.3 bin
neigh_modify        every 1 check yes

atom_style	        mdpd


#region     mdpd     block -25 25 -25 25 0 ${WaveLength} units box
#create_box          1 mdpd

#lattice             fcc 7.7
#region     tube     cylinder z 0 0 v_Radius INF INF
#create_atoms        1 region tube

read_data           initial_perturbed_10_90.data
Reading data file ...
  orthogonal box = (-30.000000 -30.000000 0.0000000) to (30.000000 30.000000 164.05184)
  2 by 2 by 2 MPI processor grid
  reading atoms ...
  526423 atoms
  read_data CPU = 0.291 seconds


pair_style          hybrid/overlay mdpd/rhosum mdpd 1.0 1.0 9872598
pair_coeff          1 1 mdpd/rhosum  0.75
pair_coeff          1 1 mdpd         -90 25 18.0 1.0 0.75
mass                1 1

compute             mythermo all temp
thermo              500
thermo_modify       temp mythermo
thermo_modify       flush yes


velocity            all create 1.0 2093 loop local dist gaussian
comm_modify         vel yes
fix         mvv     all mvv/dpd 0.65

timestep            0.01

dump        mydump  all atom 1000 thread_10_90.lammpstrj
dump_modify mydump scale no

dump force all custom 1000 dump.force_10_90 id fx fy fz
dump vel all custom 1000 dump.vel_10_90 id vx vy vz
#dump full all custom 100 dump.all id x y z vx vy vz fx fy fz

run                 1000000
Neighbor list info ...
  update every 1 steps, delay 10 steps, check yes
  max neighbors/atom: 2000, page size: 100000
  master list distance cutoff = 1.3
  ghost atom cutoff = 1.3
  binsize = 0.65, bins = 93 93 253
  2 neighbor lists, perpetual/occasional/extra = 2 0 0
  (1) pair mdpd/rhosum, perpetual
      attributes: full, newton on
      pair build: full/bin/atomonly
      stencil: full/bin/3d
      bin: standard
  (2) pair mdpd, perpetual, half/full from (1)
      attributes: half, newton on
      pair build: halffull/newton
      stencil: none
      bin: none
Per MPI rank memory allocation (min/avg/max) = 80.18 | 80.90 | 81.15 Mbytes
Step Temp E_pair E_mol TotEng Press 
       0            1    -20.52725            0   -19.027253    -2.240884 
     500   0.95871148   -19.342864            0     -17.9048  0.018351225 
    1000   0.95960306   -19.566594            0   -18.127192   -0.3405213 
    1500   0.95911737   -19.577363            0   -18.138689  -0.32633598 
    2000   0.96030753    -19.52945            0   -18.088992  -0.27249413 
    2500    0.9577785   -19.567301            0   -18.130636  -0.26187431 
    3000   0.95894874   -19.564995            0   -18.126575  -0.32965255 
    3500   0.95876387   -19.549086            0   -18.110943  -0.25891841 
    4000   0.95749552   -19.552155            0   -18.115915  -0.31041952 
    4500   0.95868094    -19.56629            0   -18.128272  -0.33666308 
    5000   0.95762974   -19.552458            0   -18.116016  -0.29026408 
    5500   0.95568486   -19.571358            0   -18.137833  -0.31329052 
    6000   0.95815926   -19.554443            0   -18.117207  -0.26542343 
    6500   0.95822504   -19.581519            0   -18.144184  -0.31398689 
    7000   0.95816226    -19.56402            0    -18.12678  -0.24575555 
    7500   0.95850783   -19.579828            0   -18.142069  -0.26346467 
    8000   0.95903855   -19.592725            0    -18.15417   -0.2810091 
    8500   0.95990444   -19.600674            0    -18.16082  -0.27879499 
    9000   0.95982008   -19.616259            0   -18.176532  -0.26750889 
    9500   0.95748001   -19.646532            0   -18.210315  -0.30611812 
   10000   0.95930422   -19.684171            0   -18.245217  -0.31967884 
   10500    0.9583584   -19.688011            0   -18.250477   -0.2759416 
   11000   0.95880569   -19.704111            0   -18.265905  -0.27616621 
   11500   0.95822746   -19.748899            0   -18.311561  -0.28756711 
   12000   0.95852998   -19.794877            0   -18.357085  -0.29971723 
   12500   0.95924818   -19.854811            0   -18.415942  -0.31236739 
   13000   0.95912558    -19.88273            0   -18.444045  -0.27492453 
   13500   0.96285441   -19.938271            0   -18.493992  -0.33564035 
   14000   0.95884174   -19.982296            0   -18.544036  -0.28450662 
   14500   0.95938161   -20.050234            0   -18.611164  -0.31519044 
   15000   0.95848825     -20.1125            0    -18.67477  -0.25799204 
   15500   0.95892283   -20.166488            0   -18.728106  -0.29678365 
   16000   0.95768557   -20.225284            0   -18.788759  -0.24453804 
   16500   0.95772546   -20.300886            0     -18.8643  -0.30092142 
   17000   0.95746042   -20.375247            0   -18.939059  -0.26654906 
   17500   0.95581659   -20.439137            0   -19.005415  -0.26976351 
   18000    0.9593389    -20.50747            0   -19.068464  -0.26523599 
   18500   0.95812549   -20.584569            0   -19.147383  -0.26445516 
   19000   0.95784777   -20.672433            0   -19.235664  -0.30118982 
   19500   0.95850573   -20.729891            0   -19.292135  -0.24787313 
   20000   0.95680089   -20.801641            0   -19.366442  -0.30567581 
   20500   0.95806594   -20.859596            0   -19.422499  -0.25330799 
   21000   0.95743632   -20.911632            0    -19.47548  -0.28928588 
   21500   0.95709832    -20.96299            0   -19.527345  -0.28394202 
   22000   0.95832671   -21.023743            0   -19.586256  -0.28102686 
   22500   0.95862482   -21.062396            0   -19.624462  -0.27947696 
   23000   0.95574979   -21.118876            0   -19.685254  -0.29641539 
   23500   0.95713556   -21.148671            0   -19.712971  -0.25544641 
   24000   0.95968241   -21.212896            0   -19.773375  -0.23185756 
   24500   0.95747949   -21.237145            0   -19.800928  -0.28942338 
   25000   0.95881778    -21.24853            0   -19.810306  -0.27522949 
   25500    0.9579376   -21.295605            0   -19.858701  -0.29922179 
   26000   0.95734491   -21.293355            0    -19.85734  -0.27388472 
   26500   0.95955933   -21.318137            0   -19.878801  -0.26966089 
   27000   0.95772954   -21.332864            0   -19.896272  -0.26960071 
   27500    0.9587617   -21.323215            0   -19.885075  -0.23344601 
   28000   0.95920372    -21.34687            0   -19.908067  -0.22449054 
   28500   0.95972033   -21.329891            0   -19.890313   -0.2162046 
   29000   0.95727433   -21.356174            0   -19.920265  -0.27394418 
