

units 		          lj
dimension	          3
boundary	          p p p
neighbor	          0.3 bin
neigh_modify        every 1 check yes

atom_style	        mdpd

#variable Radius equal 12.0
#variable WaveNumber equal 100/55
#variable WaveLength equal 2*PI*v_Radius*v_WaveNumber
#print ${WaveLength}

#region     mdpd     block -25 25 -25 25 0 ${WaveLength} units box
#create_box          1 mdpd

#lattice             fcc 7.7
#region     tube     cylinder z 0 0 v_Radius INF INF
#create_atoms        1 region tube

read_data           initial_perturbed_14.data
Reading data file ...
  orthogonal box = (-42.000000 -42.000000 0.0000000) to (42.000000 42.000000 154.32385)
  2 by 1 by 7 MPI processor grid
  reading atoms ...
  704483 atoms
  read_data CPU = 0.701 seconds


pair_style          hybrid/overlay mdpd/rhosum mdpd 1.0 1.0 9872598
pair_coeff          1 1 mdpd/rhosum  0.75
pair_coeff          1 1 mdpd         -50 25 18.0 1.0 0.75
mass                1 1

compute             mythermo all temp
thermo              100
thermo_modify       temp mythermo
thermo_modify       flush yes


velocity            all create 1.0 2093 loop local dist gaussian
comm_modify         vel yes
fix         mvv     all mvv/dpd 0.65

timestep            0.01

dump        mydump  all atom 100 thread_14.lammpstrj
dump_modify mydump scale no

dump force all custom 100 dump.force_14 id fx fy fz
dump vel all custom 100 dump.vel_14 id vx vy vz
#dump full all custom 100 dump.all id x y z vx vy vz fx fy fz

run                 70000
Neighbor list info ...
  update every 1 steps, delay 10 steps, check yes
  max neighbors/atom: 2000, page size: 100000
  master list distance cutoff = 1.3
  ghost atom cutoff = 1.3
  binsize = 0.65, bins = 130 130 238
  2 neighbor lists, perpetual/occasional/extra = 2 0 0
  (1) pair mdpd/rhosum, perpetual
      attributes: full, newton on
      pair build: full/bin/atomonly
      stencil: full/bin/3d
      bin: standard
  (2) pair mdpd, perpetual, half/full from (1)
      attributes: half, newton on
      pair build: halffull/newton
      stencil: none
      bin: none
Per MPI rank memory allocation (min/avg/max) = 48.40 | 53.30 | 59.31 Mbytes
Step Temp E_pair E_mol TotEng Press 
       0            1   -9.8420058            0   -8.3420079  -0.93526778 
     100   0.99178935   -9.4169029            0    -7.929221  -0.27716513 
     200   0.98055684   -8.5073016            0   -7.0364685   0.79954518 
     300   0.98672691   -9.0872038            0   -7.6071155  0.047197867 
     400   0.98098815   -9.7223321            0   -8.2508519  -0.69998361 
     500   0.98612629   -9.4927767            0   -8.0135894  -0.39428521 
     600    0.9831287   -8.8654963            0   -7.3908053   0.37197846 
     700   0.98025496   -8.9314388            0   -7.4610585   0.25960426 
     800   0.98410051   -9.4632472            0   -7.9870986  -0.39688422 
     900   0.97988583   -9.4900072            0   -8.0201805  -0.40331944 
    1000   0.98527917   -9.1613032            0   -7.6833866 0.0076330497 
    1100   0.98064296   -8.9634521            0   -7.4924897   0.23108614 
    1200   0.98129444   -9.2141239            0   -7.7421843 -0.085702841 
    1300   0.98094123   -9.4251294            0   -7.9537197  -0.34132595 
    1400   0.98087286   -9.3484545            0   -7.8771473  -0.21143501 
    1500    0.9811778   -9.1123695            0   -7.6406049  0.055642978 
    1600   0.98180826   -9.0595684            0   -7.5868581   0.08133868 
    1700   0.98038813   -9.2946944            0   -7.8241142  -0.16546198 
    1800   0.98099141   -9.4162036            0   -7.9447186  -0.30936168 
    1900   0.98163715   -9.2654713            0   -7.7930177  -0.11953664 
    2000   0.97994762   -9.0243211            0   -7.5544018   0.17034725 
    2100   0.98022002   -9.1521198            0   -7.6817918 0.0018530632 
    2200   0.97852067   -9.3922532            0   -7.9244743  -0.29246523 
    2300   0.98238671   -9.3692089            0    -7.895631  -0.23613324 
    2400    0.9805538   -9.1179825            0   -7.6471539  0.078328502 
    2500   0.98173077   -9.0774891            0   -7.6048951   0.11097529 
    2600   0.97843443   -9.3030049            0   -7.8353553  -0.18721736 
    2700   0.98229236   -9.3910147            0   -7.9175782  -0.28827685 
    2800   0.98009151   -9.2229862            0    -7.752851 -0.073689462 
    2900   0.98021064   -9.0821901            0   -7.6118762  0.077612681 
    3000   0.97983638   -9.2066591            0   -7.7369067 -0.080184225 
    3100   0.97742422   -9.3396271            0   -7.8734929  -0.24958734 
    3200   0.98019929   -9.3036012            0   -7.8333043  -0.17539341 
    3300   0.97962536   -9.1402552            0   -7.6708193  0.040623234 
    3400    0.9794643   -9.1435872            0   -7.6743928  0.014669646 
    3500   0.97910031   -9.2871164            0    -7.818468  -0.16526914 
    3600   0.98062212   -9.3358336            0   -7.8649025  -0.21584387 
    3700   0.98046657   -9.2147963            0   -7.7440985 -0.056333599 
    3800   0.98027355   -9.1208224            0   -7.6504141  0.063730062 
    3900   0.97876134   -9.2254807            0   -7.7573408 -0.084538084 
    4000   0.98140288   -9.3235574            0   -7.8514552  -0.20920374 
    4100   0.98160416   -9.2632471            0   -7.7908429  -0.12696923 
    4200   0.97895472   -9.1458706            0   -7.6774406 0.0083181612 
    4300    0.9784432   -9.1803521            0   -7.7126894 -0.052783448 
    4400    0.9787554   -9.2952798            0   -7.8271488  -0.18502456 
    4500   0.97980692    -9.295821            0   -7.8261128  -0.16178357 
    4600   0.98192711   -9.1929332            0   -7.7200446 -0.032780054 
    4700   0.97794019   -9.1728436            0   -7.7059354 -0.034781019 
    4800   0.98036817   -9.2472167            0   -7.7766665  -0.11089498 
    4900   0.97893498   -9.2784055            0   -7.8100051   -0.1451517 
    5000   0.97941042   -9.2324958            0   -7.7633822  -0.10170068 
    5100    0.9796169   -9.1850755            0   -7.7156522 -0.030281348 
    5200   0.97950761   -9.2174582            0   -7.7481989 -0.064190619 
    5300   0.97900085   -9.2569146            0   -7.7884154  -0.12167601 
    5400   0.97902462   -9.2547405            0   -7.7862057  -0.13577032 
    5500   0.97955341   -9.2139499            0   -7.7446219 -0.086021073 
    5600   0.97962853   -9.1978872            0   -7.7284465 -0.043732598 
    5700   0.97949704   -9.2289585            0    -7.759715 -0.063017437 
    5800   0.98005156   -9.2666234            0   -7.7965481  -0.12510821 
    5900   0.98021881   -9.2538643            0   -7.7835382  -0.12822635 
    6000   0.97961524    -9.208027            0   -7.7386063 -0.058375663 
    6100   0.97851098   -9.2019001            0   -7.7341357 -0.074683014 
    6200   0.97826973   -9.2508732            0   -7.7834707  -0.10813443 
    6300   0.97945073   -9.2651481            0   -7.7959741  -0.12944936 
    6400   0.97927392     -9.21927            0   -7.7503612 -0.059178649 
    6500   0.97947968   -9.1938499            0   -7.7246324 -0.042580159 
    6600   0.97870847   -9.2316023            0   -7.7635416  -0.10188035 
    6700     0.980257   -9.2704521            0   -7.8000687  -0.14206408 
    6800   0.97967644   -9.2552481            0   -7.7857356  -0.11964823 
    6900   0.97744633   -9.1993493            0   -7.7331818 -0.074961029 
    7000   0.97788223   -9.2175805            0   -7.7507592  -0.07439338 
    7100   0.97869225   -9.2553864            0   -7.7873502 -0.097997981 
    7200   0.98054966   -9.2592063            0   -7.7883839  -0.11694729 
    7300   0.98049104   -9.2266058            0   -7.7558713 -0.087693419 
    7400   0.97831307   -9.2138116            0   -7.7463441 -0.065104818 
    7500   0.97778154   -9.2323782            0    -7.765708 -0.099616188 
    7600    0.9788697   -9.2541598            0   -7.7858574  -0.11259562 
    7700   0.97930878   -9.2329838            0   -7.7640227 -0.087593699 
    7800   0.97775352   -9.2237864            0   -7.7571582 -0.077160529 
    7900   0.97964016   -9.2283151            0   -7.7588569 -0.091330501 
    8000   0.97801036   -9.2412755            0    -7.774262  -0.11255287 
    8100   0.98010942   -9.2377887            0   -7.7676267 -0.097868851 
    8200   0.97871579   -9.2406747            0   -7.7726031  -0.09816018 
    8300   0.98001481   -9.2222807            0   -7.7522606 -0.094198984 
    8400   0.97911686   -9.2219559            0   -7.7532827 -0.088321703 
    8500   0.97912572   -9.2356247            0   -7.7669383  -0.10071064 
    8600   0.97951172   -9.2335256            0   -7.7642601  -0.10416101 
    8700    0.9806272   -9.2291335            0   -7.7581948 -0.080605962 
    8800    0.9804226   -9.2161049            0   -7.7454731 -0.074059527 
    8900   0.97971479   -9.2291775            0   -7.7596074 -0.094394567 
    9000   0.97808776   -9.2362318            0   -7.7691022  -0.13186633 
    9100    0.9777206   -9.2404426            0   -7.7738637 -0.093630805 
    9200   0.97926348   -9.2371822            0   -7.7682891 -0.093350068 
    9300   0.98065985    -9.218132            0   -7.7471443 -0.079210578 
    9400   0.97802092   -9.2287791            0   -7.7617498 -0.098340903 
    9500   0.98053503   -9.2398907            0   -7.7690902  -0.10508688 
    9600   0.97812086   -9.2247261            0   -7.7575469 -0.073253808 
    9700   0.97964022   -9.2160811            0   -7.7466229 -0.078674468 
    9800   0.98022237   -9.2221351            0   -7.7518036  -0.08544676 
    9900    0.9803242   -9.2456189            0   -7.7751346  -0.11726967 
   10000   0.97964336   -9.2196183            0   -7.7501553 -0.090507816 
   10100   0.97905459    -9.222017            0   -7.7534372 -0.071760722 
   10200   0.98182488   -9.2292082            0   -7.7564729 -0.091305744 
   10300   0.97934737   -9.2426429            0   -7.7736239  -0.12301475 
   10400   0.97936316   -9.2400903            0   -7.7710476  -0.12095205 
   10500   0.98110849   -9.2140613            0   -7.7424007 -0.063825723 
   10600    0.9800282   -9.2257778            0   -7.7557376  -0.07819383 
   10700   0.97965074   -9.2408247            0   -7.7713507  -0.11645769 
   10800   0.97844468   -9.2335245            0   -7.7658596 -0.087967354 
   10900   0.97904228    -9.228806            0   -7.7602447 -0.094861073 
   11000   0.97873301   -9.2227933            0   -7.7546959 -0.089108844 
   11100   0.98100368   -9.2265467            0   -7.7550433  -0.10548912 
   11200    0.9802189   -9.2267928            0   -7.7564665 -0.078411617 
   11300   0.97966364   -9.2250992            0   -7.7556059 -0.091292372 
   11400   0.97984961   -9.2282936            0   -7.7585213 -0.099691722 
   11500    0.9800894   -9.2313462            0   -7.7612142 -0.090987789 
   11600   0.97984175   -9.2354629            0   -7.7657024 -0.075471985 
   11700    0.9794013   -9.2405821            0   -7.7714822  -0.10081279 
   11800   0.97952547   -9.2329909            0   -7.7637048 -0.095544717 
   11900   0.97874121   -9.2349972            0   -7.7668875 -0.074353105 
   12000   0.97932563   -9.2289596            0   -7.7599732 -0.090290642 
   12100   0.97984038   -9.2335292            0   -7.7637707 -0.088647932 
   12200   0.97904741   -9.2320398            0   -7.7634708  -0.10134221 
   12300   0.98069151   -9.2426067            0   -7.7715715  -0.10675773 
   12400   0.97984775   -9.2219193            0   -7.7521497 -0.080047469 
   12500   0.97946097   -9.2236014            0   -7.7544121 -0.069074743 
   12600   0.97975483   -9.2370734            0   -7.7674433  -0.11283916 
   12700   0.98028062    -9.234815            0   -7.7643962 -0.080643342 
   12800   0.97962381   -9.2303291            0   -7.7608955 -0.082901134 
   12900   0.97982047   -9.2292544            0   -7.7595258 -0.086504408 
   13000   0.97961422   -9.2368069            0   -7.7673877 -0.093204596 
   13100   0.97978623   -9.2370958            0   -7.7674186  -0.11175091 
   13200   0.97896041   -9.2283048            0   -7.7598663 -0.093654764 
   13300   0.97931383   -9.2225075            0   -7.7535388 -0.061187559 
   13400   0.97945711    -9.242182            0   -7.7729985 -0.098045777 
   13500    0.9807494   -9.2315494            0   -7.7604274  -0.10160836 
   13600   0.97933195   -9.2319575            0   -7.7629617 -0.078589219 
   13700   0.98006805   -9.2384616            0   -7.7683616 -0.097994364 
   13800   0.98002437   -9.2426071            0   -7.7725727  -0.11553529 
   13900     0.977976   -9.2291361            0   -7.7621742 -0.094000766 
   14000    0.9790851   -9.2257099            0   -7.7570844 -0.089150271 
   14100   0.98004726   -9.2349603            0   -7.7648915  -0.09314645 
   14200   0.98154196   -9.2326917            0   -7.7603808  -0.08881464 
   14300   0.97900021   -9.2273939            0   -7.7588957 -0.072877365 
   14400   0.97883001   -9.2360255            0   -7.7677825 -0.088649156 
   14500   0.97938946   -9.2294092            0   -7.7603271  -0.10071458 
   14600   0.97956504    -9.236064            0   -7.7667186 -0.090877217 
   14700   0.98010995   -9.2249441            0   -7.7547812 -0.063403598 
   14800   0.98062046   -9.2413833            0   -7.7704547  -0.10458661 
   14900   0.98013631   -9.2349252            0   -7.7647228 -0.075202526 
   15000   0.97902532   -9.2323677            0   -7.7638318   -0.0948312 
   15100   0.98217563   -9.2210204            0    -7.747759  -0.10070997 
   15200   0.97951873   -9.2283129            0   -7.7590368 -0.097996796 
   15300   0.98021798   -9.2270878            0   -7.7567629  -0.11235335 
   15400   0.98094927   -9.2364286            0   -7.7650068 -0.087816407 
   15500   0.97961991    -9.224781            0   -7.7553532 -0.094386192 
   15600    0.9819353   -9.2258242            0   -7.7529233 -0.087287305 
   15700    0.9805909   -9.2282757            0   -7.7573914 -0.093863981 
   15800   0.97896488   -9.2292098            0   -7.7607645 -0.073530429 
   15900   0.97898304   -9.2270189            0   -7.7585465 -0.095222066 
   16000   0.97926825   -9.2307782            0   -7.7618779 -0.081030564 
   16100   0.97942504   -9.2275423            0   -7.7584069 -0.094646722 
   16200   0.98023125   -9.2279119            0   -7.7575671 -0.097985956 
   16300   0.98097044   -9.2315287            0   -7.7600751 -0.092276277 
   16400    0.9797018   -9.2286087            0   -7.7590581 -0.093396013 
   16500   0.97970422   -9.2367901            0   -7.7672359  -0.10167817 
   16600   0.97897476   -9.2306442            0   -7.7621842 -0.086633041 
   16700   0.97923884   -9.2349319            0   -7.7660757 -0.097283321 
   16800   0.97953683   -9.2326944            0   -7.7633912  -0.10040059 
   16900   0.97980683   -9.2166365            0   -7.7469283 -0.068776694 
   17000   0.97880105   -9.2287731            0   -7.7605736 -0.083141497 
   17100   0.97961086   -9.2276855            0   -7.7582714 -0.099164769 
   17200   0.97934367   -9.2303119            0   -7.7612985 -0.094685662 
   17300   0.97934468   -9.2331015            0   -7.7640866  -0.10551228 
   17400   0.97840104    -9.235605            0   -7.7680055 -0.088715095 
   17500    0.9808385   -9.2191017            0    -7.747846 -0.078784622 
   17600    0.9782516   -9.2257315            0   -7.7583561 -0.093366885 
   17700   0.97837734   -9.2427646            0   -7.7752007 -0.099027656 
   17800    0.9792145    -9.229513            0   -7.7606934 -0.069719353 
   17900   0.98074505   -9.2187203            0   -7.7476048 -0.091803631 
   18000   0.97999105    -9.231351            0   -7.7613665 -0.095740709 
   18100   0.98034367   -9.2349635            0   -7.7644501  -0.10476667 
   18200   0.97780798   -9.2375201            0   -7.7708102 -0.086506962 
   18300   0.97972226   -9.2288457            0   -7.7592644 -0.093859471 
   18400   0.98091213   -9.2347028            0   -7.7633367  -0.10058368 
   18500   0.98083719   -9.2385528            0   -7.7672991  -0.11261178 
   18600   0.97979292   -9.2246564            0   -7.7549691 -0.085839228 
   18700   0.97786994   -9.2377021            0   -7.7708993 -0.094318999 
   18800   0.97952408   -9.2344672            0   -7.7651832 -0.096230628 
   18900   0.97938949   -9.2351038            0   -7.7660216 -0.083135221 
   19000   0.98007113   -9.2299195            0   -7.7598149  -0.08018802 
   19100   0.97950891   -9.2359454            0   -7.7666841 -0.075024038 
   19200   0.97893677   -9.2347353            0   -7.7663322  -0.10362169 
   19300   0.97821582   -9.2388853            0   -7.7715636 -0.097060457 
   19400   0.97979016   -9.2366467            0   -7.7669636  -0.09435174 
   19500   0.97922388   -9.2187678            0    -7.749934 -0.078534981 
   19600   0.97826363   -9.2350029            0   -7.7676096  -0.11082019 
   19700   0.97862785   -9.2351881            0   -7.7672484  -0.10945528 
   19800   0.98111044   -9.2295737            0   -7.7579101 -0.093685118 
   19900   0.98136008   -9.2303055            0   -7.7582675 -0.087040453 
   20000    0.9803141   -9.2304612            0   -7.7599921 -0.082450595 
   20100   0.97878837   -9.2316225            0   -7.7634421 -0.084112515 
   20200   0.98117821   -9.2317668            0   -7.7600016 -0.082236826 
   20300   0.97958993   -9.2381976            0   -7.7688148 -0.093037298 
   20400   0.98062748   -9.2339956            0   -7.7630565 -0.093372538 
   20500   0.97968894    -9.240766            0   -7.7712347 -0.096046665 
   20600      0.97829   -9.2348083            0   -7.7673754 -0.096686433 
   20700   0.98039272   -9.2304668            0   -7.7598798 -0.093756636 
   20800   0.98067814   -9.2267934            0   -7.7557782 -0.097195818 
   20900   0.97953762     -9.24249            0   -7.7731856 -0.090269947 
   21000   0.98125455   -9.2197299            0   -7.7478501 -0.066395499 
   21100   0.98201581   -9.2277937            0   -7.7547721 -0.090942304 
   21200   0.97926659   -9.2294178            0     -7.76052 -0.087769593 
   21300   0.98073501   -9.2270127            0   -7.7559122 -0.071635629 
   21400   0.98057477    -9.232112            0    -7.761252 -0.072972314 
   21500   0.97968138   -9.2378884            0   -7.7683684 -0.082480171 
   21600   0.98122209   -9.2347033            0   -7.7628722 -0.095110252 
   21700   0.98055797   -9.2342567            0   -7.7634219 -0.085105812 
   21800   0.98278684   -9.2245252            0    -7.750347 -0.094117063 
   21900   0.97874026   -9.2288685            0   -7.7607602 -0.089553719 
   22000   0.97919906    -9.223147            0   -7.7543505 -0.087115571 
   22100   0.97969867   -9.2429472            0   -7.7734012 -0.097356895 
   22200   0.98224896   -9.2257953            0   -7.7524239 -0.081939147 
   22300   0.98013394   -9.2228985            0   -7.7526997 -0.074312203 
   22400     0.980432   -9.2413225            0   -7.7706766  -0.10269493 
   22500   0.97811054   -9.2311858            0   -7.7640221 -0.097318208 
   22600   0.97926582   -9.2284983            0   -7.7596017  -0.10640405 
   22700   0.97686221    -9.228805            0   -7.7635138  -0.10408353 
   22800    0.9802026   -9.2225536            0   -7.7522518 -0.069617392 
   22900   0.98096401   -9.2210484            0   -7.7496045 -0.090179789 
   23000   0.98035995   -9.2382094            0   -7.7676715  -0.10303601 
   23100   0.98115972   -9.2393137            0   -7.7675762 -0.098774307 
   23200    0.9792201   -9.2282954            0   -7.7594673 -0.081344263 
   23300   0.98019036   -9.2302401            0   -7.7599566 -0.076858988 
   23400    0.9794525   -9.2256954            0   -7.7565187 -0.082051293 
   23500   0.97785549    -9.226141            0   -7.7593599 -0.095171377 
   23600   0.97961803   -9.2455449            0     -7.77612  -0.10121818 
   23700   0.98150416   -9.2297373            0   -7.7574832 -0.085850449 
   23800   0.98101806   -9.2214903            0   -7.7499653 -0.094391426 
   23900   0.98105265    -9.222514            0   -7.7509371 -0.074741115 
   24000   0.98156165   -9.2268419            0   -7.7545016 -0.075899679 
   24100   0.97895722   -9.2387843            0   -7.7703506  -0.11000818 
   24200   0.98045111    -9.234992            0   -7.7643174   -0.0760805 
   24300   0.97930055   -9.2257209            0   -7.7567721 -0.094772681 
   24400   0.98006651   -9.2249217            0    -7.754824 -0.081544666 
   24500   0.98144397   -9.2378158            0   -7.7656519 -0.094501026 
   24600   0.98027091   -9.2371225            0   -7.7667182  -0.10204787 
   24700   0.97984254   -9.2314134            0   -7.7616517 -0.093247817 
   24800   0.97792301    -9.233641            0   -7.7667585 -0.097459192 
   24900   0.98188566   -9.2290299            0   -7.7562035 -0.084513016 
   25000   0.98086392   -9.2239198            0    -7.752626  -0.07398063 
   25100   0.97904405   -9.2270828            0   -7.7585189 -0.073730468 
   25200   0.98058103   -9.2306415            0   -7.7597721 -0.094305157 
   25300   0.98117058   -9.2292961            0   -7.7575423 -0.047873166 
   25400   0.97926888   -9.2368755            0   -7.7679742 -0.081373979 
   25500   0.98231282   -9.2344574            0   -7.7609902  -0.10167799 
   25600   0.98148739   -9.2273024            0   -7.7550734 -0.059118225 
   25700   0.97966654   -9.2352234            0   -7.7657257 -0.087978362 
   25800   0.97997271    -9.229987            0   -7.7600301 -0.076025538 
   25900   0.98106898   -9.2208937            0   -7.7492923 -0.080498734 
   26000   0.98012343   -9.2267969            0   -7.7566138 -0.086599725 
   26100   0.97891872    -9.235264            0    -7.766888 -0.087652776 
   26200    0.9820458   -9.2322163            0   -7.7591497 -0.062069084 
   26300   0.98025668   -9.2291541            0   -7.7587712 -0.083724815 
   26400    0.9809852   -9.2321369            0   -7.7606612 -0.062692345 
   26500   0.98163374   -9.2275132            0   -7.7550647  -0.07313854 
   26600   0.98103461   -9.2432251            0   -7.7716752  -0.10737876 
   26700   0.98230413   -9.2389442            0   -7.7654901  -0.10517909 
   26800   0.98140308   -9.2290191            0   -7.7569166 -0.090766887 
   26900   0.98131436    -9.230649            0   -7.7586796 -0.082045231 
   27000   0.97970416   -9.2232524            0   -7.7536983 -0.093614937 
   27100   0.98053938   -9.2387615            0   -7.7679545   -0.1269826 
   27200   0.98215169   -9.2259578            0   -7.7527323 -0.076250817 
   27300   0.98294565   -9.2375728            0   -7.7631565  -0.09086372 
   27400   0.98220759   -9.2269327            0   -7.7536234 -0.090515202 
   27500   0.97901793   -9.2382198            0    -7.769695 -0.087404206 
   27600   0.98172716   -9.2392608            0   -7.7666721 -0.091682304 
   27700   0.98410239   -9.2303739            0   -7.7542224 -0.068447938 
   27800   0.97976503   -9.2322304            0    -7.762585 -0.079780342 
   27900   0.98152585   -9.2190582            0   -7.7467715 -0.073626858 
   28000   0.98003908   -9.2304608            0   -7.7604043 -0.090315928 
   28100   0.98259703    -9.235569            0   -7.7616755  -0.10086175 
   28200   0.98213722   -9.2367093            0   -7.7635056  -0.09154268 
   28300   0.98498262   -9.2236083            0   -7.7461365 -0.086815532 
   28400   0.98050133    -9.221531            0   -7.7507811 -0.081314021 
   28500   0.98188914   -9.2331716            0     -7.76034 -0.086572269 
   28600    0.9821412   -9.2472226            0   -7.7740129  -0.13013204 
   28700   0.98200973   -9.2331525            0     -7.76014 -0.089405069 
   28800   0.98246697   -9.2232372            0   -7.7495388 -0.075201742 
   28900   0.98023302   -9.2322019            0   -7.7618544   -0.0554472 
   29000   0.98048975   -9.2364725            0   -7.7657399 -0.094283004 
   29100   0.98202262   -9.2479377            0   -7.7749058 -0.090143861 
   29200   0.98173199    -9.235105            0   -7.7625091 -0.081491863 
   29300   0.98257591   -9.2276408            0    -7.753779 -0.079599559 
   29400   0.98087993    -9.226398            0   -7.7550802 -0.066050781 
   29500   0.98190821   -9.2361993            0   -7.7633391 -0.095407862 
   29600   0.98357487   -9.2364743            0   -7.7611141  -0.09071442 
   29700   0.98221513   -9.2303564            0   -7.7570358 -0.088409165 
   29800   0.98190787   -9.2424957            0    -7.769636  -0.06387298 
   29900   0.98189845   -9.2283609            0   -7.7555154 -0.088923512 
   30000   0.98182874   -9.2235945            0   -7.7508535 -0.079192231 
   30100   0.98228884   -9.2370411            0   -7.7636099  -0.08685431 
   30200   0.98252984    -9.231247            0   -7.7574543 -0.074292313 
   30300   0.98165907   -9.2319899            0   -7.7595034 -0.099811036 
   30400   0.98203218   -9.2205618            0   -7.7475156 -0.078690579 
   30500   0.98051358   -9.2323911            0   -7.7616228 -0.085046386 
   30600   0.98350586   -9.2451017            0    -7.769845 -0.086593019 
   30700   0.98165579   -9.2403338            0   -7.7678522  -0.10011118 
   30800   0.98344064   -9.2271317            0   -7.7519729 -0.082853793 
   30900   0.98047557   -9.2194739            0   -7.7487626 -0.059947845 
   31000   0.98244921   -9.2240657            0   -7.7503939 -0.064799687 
   31100   0.98269825   -9.2290146            0   -7.7549694 -0.092724768 
   31200   0.98192544   -9.2450112            0   -7.7721251 -0.093769275 
   31300   0.98133863   -9.2394197            0   -7.7674138  -0.08750377 
   31400   0.98202746   -9.2200144            0   -7.7469753 -0.074742659 
   31500   0.98150142   -9.2309061            0   -7.7586561 -0.080550412 
   31600   0.98362635   -9.2255438            0   -7.7501064 -0.073751036 
   31700   0.98351307   -9.2485142            0   -7.7732467  -0.11018055 
   31800   0.98327859   -9.2438929            0   -7.7689771 -0.097874345 
   31900   0.98013505   -9.2267425            0    -7.756542 -0.089807835 
   32000   0.98323371   -9.2313213            0   -7.7564729 -0.071056368 
   32100   0.98399268   -9.2258731            0   -7.7498862  -0.07091729 
   32200    0.9827535   -9.2357772            0   -7.7616491  -0.09178355 
   32300   0.98130239    -9.236946            0   -7.7649945  -0.10745102 
   32400    0.9822358   -9.2348849            0   -7.7615333 -0.086128958 
   32500   0.98404862   -9.2196501            0   -7.7435792 -0.071196211 
   32600   0.98232753   -9.2224213            0   -7.7489321  -0.10160392 
   32700   0.98418112   -9.2307239            0   -7.7544543 -0.075090311 
   32800   0.98348274    -9.242975            0    -7.767753 -0.089481157 
   32900   0.98309497   -9.2342897            0   -7.7596494 -0.078741218 
   33000   0.98231066   -9.2260883            0   -7.7526244 -0.077862403 
   33100   0.98207179   -9.2202942            0   -7.7471886 -0.078150591 
   33200   0.98231986   -9.2264733            0   -7.7529956 -0.081756751 
   33300   0.98256203   -9.2377925            0   -7.7639516 -0.085854744 
   33400   0.98247324   -9.2321956            0   -7.7584878 -0.064636788 
   33500   0.98406822   -9.2288741            0   -7.7527738 -0.082683463 
   33600   0.98397479   -9.2190533            0   -7.7430932 -0.062352498 
   33700   0.98488308   -9.2191098            0   -7.7417872 -0.065921216 
   33800   0.98165936   -9.2308813            0   -7.7583944 -0.087586784 
   33900   0.98299771   -9.2415865            0    -7.767092 -0.084009586 
   34000   0.98295829    -9.231459            0   -7.7570236 -0.083740815 
   34100    0.9827376   -9.2259129            0   -7.7518086 -0.077436125 
   34200   0.98354919   -9.2265328            0   -7.7512111 -0.065432438 
   34300   0.98361232   -9.2349856            0   -7.7595693 -0.095296409 
   34400   0.98399958   -9.2206099            0   -7.7446126 -0.069710462 
   34500   0.98492148   -9.2330062            0   -7.7556261 -0.090542706 
   34600   0.98557201   -9.2266613            0   -7.7483054 -0.059171275 
   34700   0.98395547    -9.231052            0   -7.7551209 -0.086514805 
   34800   0.98452434   -9.2171012            0   -7.7403168 -0.072068632 
   34900   0.98416209   -9.2298399            0   -7.7535988 -0.099095603 
   35000   0.98270601   -9.2326907            0   -7.7586337 -0.085599782 
   35100   0.98292783   -9.2365193            0   -7.7621296 -0.096003815 
   35200   0.98405071   -9.2286061            0   -7.7525322 -0.070243747 
   35300   0.98448686   -9.2255021            0   -7.7487739 -0.068627983 
   35400   0.98365148   -9.2238512            0   -7.7483761 -0.067485146 
   35500   0.98336141   -9.2213252            0   -7.7462852 -0.072456417 
   35600   0.98409044   -9.2363366            0    -7.760203 -0.083100621 
   35700   0.98436688   -9.2270485            0   -7.7505003 -0.069858635 
   35800   0.98421092     -9.23285            0   -7.7565357 -0.082810135 
   35900   0.98457537   -9.2248943            0   -7.7480334 -0.064075944 
   36000   0.98468028   -9.2251958            0   -7.7481775 -0.056758636 
   36100    0.9836236   -9.2361282            0   -7.7606948 -0.084340365 
   36200   0.98572099   -9.2413452            0   -7.7627658  -0.08663982 
   36300   0.98544073   -9.2322208            0   -7.7540618 -0.093029445 
   36400   0.98607372   -9.2327106            0   -7.7536021 -0.072742667 
   36500   0.98464985   -9.2231212            0   -7.7461485 -0.067874714 
   36600   0.98474868   -9.2334612            0   -7.7563403 -0.079316332 
   36700   0.98464803   -9.2350196            0   -7.7580496 -0.070338405 
   36800   0.98313598   -9.2286914            0   -7.7539895 -0.071868644 
   36900   0.98769245   -9.2256662            0   -7.7441296 -0.078432729 
   37000   0.98339632   -9.2161599            0   -7.7410675 -0.068704465 
   37100   0.98376022   -9.2138483            0   -7.7382101 -0.054695738 
   37200   0.98574376   -9.2358972            0   -7.7572837 -0.076401104 
   37300     0.986181   -9.2411037            0   -7.7618343 -0.091702761 
   37400    0.9843027   -9.2340585            0   -7.7576065 -0.093480774 
   37500   0.98392282   -9.2204409            0   -7.7445588 -0.069566678 
   37600   0.98448361   -9.2127303            0    -7.736007 -0.071012526 
   37700   0.98589677   -9.2219712            0   -7.7431282 -0.060162387 
   37800   0.98580909   -9.2410802            0   -7.7623687 -0.076405667 
   37900   0.98589086   -9.2324826            0   -7.7536484 -0.088576154 
   38000   0.98564484   -9.2330895            0   -7.7546243 -0.070481352 
   38100   0.98465188   -9.2180577            0    -7.741082 -0.059972413 
   38200   0.98468077   -9.2227337            0   -7.7457146 -0.068663692 
   38300    0.9872113   -9.2213565            0   -7.7405417 -0.077830423 
   38400   0.98634687   -9.2310506            0   -7.7515324 -0.077191813 
   38500   0.98577098   -9.2420043            0     -7.76335 -0.088083634 
   38600   0.98562446   -9.2341021            0   -7.7556675 -0.061827316 
   38700   0.98612356    -9.221242            0   -7.7420588 -0.061153697 
   38800   0.98458783   -9.2189763            0   -7.7420966 -0.062547353 
   38900   0.98479048   -9.2271137            0   -7.7499301 -0.066570204 
   39000   0.98569013   -9.2339272            0   -7.7553941 -0.064323295 
   39100   0.98776403   -9.2349617            0   -7.7533178  -0.08687427 
   39200   0.98489887    -9.226197            0   -7.7488508 -0.068084404 
   39300   0.98623902   -9.2316518            0   -7.7522954 -0.068614345 
   39400   0.98733099   -9.2200385            0   -7.7390441 -0.049626786 
   39500   0.98456191   -9.2303251            0   -7.7534843 -0.078046035 
   39600   0.98741006   -9.2334101            0   -7.7522971 -0.065281299 
   39700   0.98792435   -9.2302864            0    -7.748402 -0.081038198 
   39800   0.98614466   -9.2187063            0   -7.7394914  -0.05118483 
   39900   0.98644616   -9.2307136            0   -7.7510465 -0.071683524 
   40000   0.98572307   -9.2226696            0   -7.7440871 -0.078604438 
   40100   0.98693736   -9.2318384            0   -7.7514345 -0.067144292 
   40200   0.98660254   -9.2273003            0   -7.7473986 -0.050406343 
   40300   0.98622069   -9.2355524            0   -7.7562234 -0.086111047 
   40400   0.98531562   -9.2214103            0   -7.7434389 -0.040881795 
   40500   0.98623793   -9.2371111            0   -7.7577563 -0.076264823 
   40600   0.98594573   -9.2296842            0   -7.7507677 -0.071456387 
   40700   0.98589202   -9.2344433            0   -7.7556074 -0.068591686 
   40800   0.98598435   -9.2305868            0   -7.7516123 -0.042846951 
   40900   0.98560529   -9.2303557            0   -7.7519498  -0.08614548 
   41000   0.98487289   -9.2270831            0   -7.7497759 -0.061511488 
   41100   0.98522724   -9.2362936            0   -7.7584548 -0.057848133 
   41200   0.98651028   -9.2283299            0   -7.7485665 -0.063786796 
   41300   0.98700915   -9.2234046            0   -7.7428929 -0.068123776 
   41400   0.98674464   -9.2283015            0   -7.7481867 -0.060584104 
   41500   0.98587187   -9.2325445            0   -7.7537388 -0.066063284 
   41600   0.98512507   -9.2226801            0   -7.7449946 -0.074049257 
   41700   0.98698546   -9.2307973            0   -7.7503212 -0.053374602 
   41800   0.98578762   -9.2256924            0   -7.7470131 -0.059170475 
   41900   0.98649781   -9.2301982            0   -7.7504536 -0.068806108 
   42000   0.98654537   -9.2229821            0   -7.7431661 -0.058134169 
   42100   0.98760547   -9.2383605            0   -7.7569544 -0.073926296 
   42200   0.98569405   -9.2189171            0   -7.7403781 -0.044437501 
   42300   0.98641053   -9.2157853            0   -7.7361717 -0.062500784 
   42400   0.98601827   -9.2400361            0   -7.7610108 -0.084129153 
   42500   0.98678576   -9.2287079            0   -7.7485314 -0.071999638 
   42600   0.98602406   -9.2258505            0   -7.7468165 -0.043012303 
   42700   0.98565127   -9.2384296            0   -7.7599548  -0.10184491 
   42800   0.98687049   -9.2284633            0   -7.7481597   -0.0580393 
   42900   0.98623054    -9.227805            0   -7.7484613 -0.069007653 
   43000   0.98710353   -9.2313521            0   -7.7506989 -0.073853127 
   43100   0.98731307   -9.2276867            0   -7.7467192 -0.060245805 
   43200   0.98664348    -9.228703            0   -7.7487399 -0.080796019 
   43300   0.98559349   -9.2323258            0   -7.7539376 -0.082124003 
   43400   0.98581957   -9.2259428            0   -7.7472156 -0.063869257 
   43500   0.98572792   -9.2286939            0   -7.7501041 -0.062113479 
   43600   0.98553409   -9.2298244            0   -7.7515254 -0.064913768 
   43700   0.98618008   -9.2309801            0   -7.7517121 -0.075480844 
   43800   0.98425633    -9.230032            0   -7.7536496 -0.058446183 
   43900   0.98337633   -9.2267489            0   -7.7516865 -0.050469356 
   44000    0.9845224   -9.2288737            0   -7.7520922 -0.085075193 
   44100   0.98496889   -9.2247975            0   -7.7473463 -0.065072996 
   44200   0.98497457   -9.2306602            0   -7.7532004  -0.07124621 
   44300   0.98482568   -9.2373143            0   -7.7600778 -0.081531532 
   44400    0.9834828   -9.2340015            0   -7.7587794 -0.078199319 
   44500   0.98349108   -9.2289859            0   -7.7537514 -0.074009727 
   44600   0.98522345   -9.2428013            0   -7.7649683 -0.085449325 
   44700   0.98356583   -9.2253283            0   -7.7499817 -0.060769833 
   44800   0.98274591   -9.2334912            0   -7.7593744 -0.054515355 
   44900   0.98412249   -9.2267991            0   -7.7506175 -0.060356832 
   45000    0.9838018   -9.2447176            0    -7.769017 -0.068562628 
   45100   0.98342568    -9.226679            0   -7.7515425  -0.06806238 
   45200   0.98430066   -9.2258506            0   -7.7494018 -0.068352632 
   45300   0.98346364    -9.223525            0   -7.7483316 -0.073279602 
   45400   0.98323384   -9.2175754            0   -7.7427267 -0.079563609 
   45500   0.98179082   -9.2218683            0   -7.7491841 -0.035002711 
   45600   0.98328813   -9.2243933            0   -7.7494632 -0.074430014 
   45700   0.98246022   -9.2341775            0   -7.7604893 -0.066686491 
   45800   0.98273499     -9.22456            0   -7.7504596 -0.046154974 
   45900   0.98235921    -9.219773            0   -7.7462363  -0.05447065 
   46000   0.98226775   -9.2384875            0   -7.7650879 -0.064410884 
   46100   0.98369358    -9.229999            0   -7.7544607 -0.071612959 
   46200   0.98216067   -9.2279333            0   -7.7546944 -0.070722657 
   46300   0.98257256   -9.2242561            0   -7.7503993 -0.057349246 
   46400   0.98122878   -9.2290529            0   -7.7572118 -0.068518416 
   46500   0.98365634   -9.2352513            0   -7.7597689 -0.062770018 
   46600   0.98362784   -9.2331581            0   -7.7577184 -0.068501477 
   46700   0.98312266   -9.2211973            0   -7.7465154 -0.050336012 
   46800   0.98208356   -9.2321348            0   -7.7590115 -0.043200558 
   46900   0.98133107   -9.2227554            0   -7.7507609 -0.055809536 
   47000   0.98158202   -9.2241538            0   -7.7517828 -0.069274709 
   47100   0.98164724   -9.2394014            0   -7.7669327 -0.081234259 
   47200   0.98051743   -9.2306116            0   -7.7598375 -0.047449261 
   47300   0.98198271   -9.2236706            0   -7.7506986 -0.044696482 
   47400   0.98204162   -9.2283724            0   -7.7553121 -0.062185283 
   47500   0.98108356    -9.236981            0   -7.7653577 -0.067524248 
   47600   0.98148726   -9.2158983            0   -7.7436695 -0.065246985 
   47700   0.98174202   -9.2336775            0   -7.7610665 -0.065720937 
   47800   0.98236564   -9.2234853            0   -7.7499389 -0.045257455 
   47900   0.98400683   -9.2244371            0    -7.748429 -0.059262542 
   48000   0.98253844   -9.2270557            0   -7.7532501 -0.058244842 
   48100   0.98185949   -9.2431293            0   -7.7703422 -0.083743438 
   48200   0.98335643    -9.238045            0   -7.7630124  -0.07557699 
   48300   0.98251903   -9.2308893            0   -7.7571128 -0.074580572 
   48400   0.98293736   -9.2369793            0   -7.7625753 -0.076476243 
   48500   0.98131569   -9.2195432            0   -7.7475717 -0.066298738 
   48600   0.98070546   -9.2338518            0   -7.7627957 -0.063099327 
   48700   0.98237262   -9.2308883            0   -7.7573314 -0.066667424 
   48800   0.98108922   -9.2266766            0   -7.7550448 -0.050365784 
   48900   0.98208428   -9.2341686            0   -7.7610443 -0.063546591 
   49000   0.98163639   -9.2430348            0   -7.7705823 -0.098086745 
   49100   0.98147936   -9.2265822            0   -7.7543652 -0.056794645 
   49200   0.98185815    -9.225248            0   -7.7524629 -0.064019279 
   49300   0.97866795   -9.2296795            0   -7.7616797 -0.067869355 
   49400   0.98060214   -9.2224481            0   -7.7515469 -0.056912535 
   49500   0.98035835   -9.2412692            0   -7.7707338 -0.055093489 
   49600   0.98048855   -9.2318528            0    -7.761122 -0.075285792 
   49700   0.98008461   -9.2270343            0   -7.7569095 -0.062896429 
   49800   0.97959746   -9.2355493            0   -7.7661552 -0.063479678 
   49900   0.98036624   -9.2368176            0   -7.7662703 -0.070986863 
   50000    0.9817493   -9.2164252            0   -7.7438033  -0.05752166 
   50100   0.97919445   -9.2387806            0    -7.769991 -0.064020957 
   50200   0.98127225   -9.2340793            0    -7.762173 -0.066914162 
   50300   0.97900149    -9.232323            0   -7.7638228 -0.077568688 
   50400   0.97940664   -9.2360537            0   -7.7669458 -0.095318859 
   50500   0.98044262   -9.2328794            0   -7.7622175 -0.055937265 
   50600   0.98075873   -9.2226205            0   -7.7514845 -0.041062482 
   50700   0.97964362   -9.2364481            0   -7.7669848 -0.057067987 
   50800   0.98008562    -9.243973            0   -7.7738466 -0.093376292 
   50900   0.97950614   -9.2332169            0   -7.7639598 -0.089007081 
   51000   0.98009066   -9.2191836            0   -7.7490497 -0.033677143 
   51100    0.9793622   -9.2352165            0   -7.7661753 -0.043566097 
   51200   0.97913303    -9.233902            0   -7.7652045 -0.067644612 
   51300   0.97986613    -9.229216            0   -7.7594189 -0.068469747 
   51400   0.98027977   -9.2304999            0   -7.7600823 -0.067402837 
   51500   0.98048081   -9.2329825            0   -7.7622634 -0.044108125 
   51600   0.98143359   -9.2318445            0   -7.7596962 -0.074846564 
   51700   0.97945291   -9.2269078            0   -7.7577305 -0.071610007 
   51800   0.98058077   -9.2356004            0   -7.7647313 -0.065627481 
   51900    0.9812952   -9.2287455            0   -7.7568048 -0.057304681 
   52000   0.97950699   -9.2248529            0   -7.7555945 -0.060536993 
   52100   0.97966501   -9.2305438            0   -7.7610484 -0.077530446 
   52200   0.98057822   -9.2381944            0   -7.7673291  -0.06624327 
   52300   0.98041619   -9.2378792            0    -7.767257   -0.0562783 
   52400   0.98056662   -9.2240636            0   -7.7532157   -0.0427883 
   52500   0.97930914   -9.2373897            0   -7.7684281 -0.085642822 
   52600   0.97877528   -9.2301307            0   -7.7619699 -0.056018213 
   52700   0.97992246   -9.2318747            0   -7.7619931 -0.050124097 
   52800   0.97996069   -9.2354243            0   -7.7654853 -0.044692739 
   52900   0.98138083   -9.2385627            0   -7.7664936 -0.048485008 
   53000   0.97911771   -9.2333036            0   -7.7646291 -0.056664844 
   53100   0.98015012   -9.2236884            0   -7.7534653 -0.063956714 
   53200   0.98120243   -9.2328115            0     -7.76101 -0.060412187 
   53300   0.98066793   -9.2323701            0   -7.7613703 -0.057172594 
   53400   0.97918376   -9.2364202            0   -7.7676467 -0.085539449 
   53500   0.97880397   -9.2388679            0    -7.770664  -0.07351471 
   53600   0.97761929   -9.2289172            0   -7.7624904 -0.082396163 
   53700   0.97983882   -9.2268667            0   -7.7571106 -0.054774863 
   53800   0.97996918   -9.2324487            0   -7.7624971 -0.085745678 
   53900   0.97962154   -9.2416196            0   -7.7721893 -0.067767243 
   54000   0.98013754   -9.2284625            0   -7.7582583 -0.052860698 
   54100   0.98084394   -9.2405272            0   -7.7692634 -0.068649626 
   54200   0.97871761   -9.2366405            0   -7.7685662 -0.068061934 
   54300   0.98232902   -9.2333346            0   -7.7598432 -0.041486957 
   54400   0.98126041    -9.225704            0   -7.7538155 -0.053564802 
   54500   0.97824545    -9.240603            0   -7.7732369 -0.097874098 
   54600   0.97859859   -9.2309595            0   -7.7630637 -0.064357767 
   54700    0.9792579   -9.2283961            0   -7.7595113 -0.040821118 
   54800   0.97863585   -9.2299471            0   -7.7619954 -0.054927166 
   54900   0.98195301   -9.2356786            0   -7.7627512  -0.06834076 
   55000   0.98113348   -9.2346883            0   -7.7629901 -0.077157862 
   55100    0.9794764   -9.2241197            0   -7.7549072  -0.05223866 
   55200   0.98087102   -9.2367325            0   -7.7654281  -0.06528261 
   55300   0.97957139    -9.234332            0    -7.764977 -0.047660453 
   55400   0.97945644   -9.2303356            0    -7.761153 -0.051792317 
   55500    0.9792813    -9.231055            0   -7.7621351 -0.049062155 
   55600    0.9799528   -9.2372699            0   -7.7673428 -0.056835875 
   55700   0.98042596   -9.2296646            0   -7.7590277 -0.062302072 
   55800   0.98074198   -9.2278348            0   -7.7567239 -0.062209018 
   55900   0.98104613   -9.2351324            0   -7.7635653 -0.072473491 
   56000   0.97993323   -9.2294516            0   -7.7595539 -0.075135242 
   56100   0.98056023    -9.229025            0   -7.7581867 -0.044077883 
   56200   0.98039096   -9.2343215            0   -7.7637371 -0.070428588 
   56300   0.98034995   -9.2366309            0   -7.7661081  -0.07311931 
   56400   0.97934903   -9.2279964            0    -7.758975 -0.056788009 
   56500   0.98092365   -9.2360142            0   -7.7646308 -0.050612077 
   56600   0.97984713   -9.2318213            0   -7.7620527  -0.05812804 
   56700   0.98009923   -9.2302195            0   -7.7600728 -0.054442864 
   56800   0.97933905   -9.2262838            0   -7.7572773 -0.048427034 
   56900   0.97900376   -9.2295843            0   -7.7610808 -0.064485158 
   57000    0.9813328   -9.2308863            0   -7.7588892 -0.057796815 
   57100   0.98005033   -9.2217569            0   -7.7516835 -0.051071603 
   57200   0.98019893   -9.2266421            0   -7.7563458 -0.063147206 
   57300   0.98002684   -9.2320359            0   -7.7619977  -0.06119801 
   57400   0.98046284   -9.2347933            0   -7.7641012  -0.06635813 
   57500   0.97933833   -9.2310776            0   -7.7620722 -0.064505405 
   57600   0.98061984   -9.2386534            0   -7.7677258 -0.061748416 
   57700    0.9794703   -9.2305995            0   -7.7613962 -0.048713828 
   57800   0.98043863   -9.2272253            0   -7.7565695 -0.064578859 
   57900    0.9803628   -9.2382784            0   -7.7677363 -0.061742565 
   58000   0.98155859    -9.234357            0   -7.7620212 -0.072832293 
   58100   0.98138104     -9.23301            0   -7.7609405 -0.041955983 
   58200    0.9803212   -9.2345412            0   -7.7640615 -0.057376126 
   58300   0.98137677   -9.2325745            0   -7.7605114 -0.056384449 
   58400   0.97924625   -9.2276443            0    -7.758777 -0.043084038 
   58500    0.9798709   -9.2411038            0   -7.7712996 -0.079993349 
   58600    0.9795896   -9.2271153            0    -7.757733 -0.081142548 
   58700   0.98073358   -9.2397943            0    -7.768696 -0.079074708 
   58800     0.980338   -9.2319219            0    -7.761417 -0.041230813 
   58900   0.98012848   -9.2262969            0   -7.7561063 -0.050845058 
   59000   0.97918605   -9.2283056            0   -7.7595286 -0.081863225 
   59100   0.98109653   -9.2456416            0   -7.7739989 -0.071480378 
   59200   0.98073963   -9.2380793            0    -7.766972 -0.068569656 
   59300   0.97859715    -9.223153            0   -7.7552594  -0.04577727 
   59400   0.97983088   -9.2320049            0   -7.7622607 -0.060182557 
   59500   0.97805622   -9.2369086            0   -7.7698263 -0.071228107 
   59600   0.98089571   -9.2253003            0   -7.7539588 -0.039102729 
   59700   0.97936584   -9.2374327            0    -7.768386 -0.056887459 
   59800   0.98062829   -9.2310091            0   -7.7600688 -0.047597871 
   59900   0.98043905   -9.2329422            0   -7.7622858 -0.059447609 
   60000   0.97920718   -9.2341174            0   -7.7653087 -0.062263969 
   60100    0.9792814   -9.2430804            0   -7.7741603 -0.096974334 
   60200   0.98126728   -9.2360819            0    -7.764183 -0.047709216 
   60300   0.97939637    -9.229956            0   -7.7608636 -0.062903948 
   60400    0.9789506   -9.2372284            0   -7.7688046 -0.067394126 
   60500   0.97977303   -9.2402662            0   -7.7706087 -0.055143518 
   60600   0.97907913   -9.2240766            0     -7.75546 -0.059704488 
   60700   0.97960151   -9.2384737            0   -7.7690735 -0.052253446 
   60800   0.97931067    -9.239577            0   -7.7706131 -0.073653085 
   60900    0.9810379   -9.2308612            0   -7.7593064  -0.03712746 
   61000   0.98001129   -9.2390476            0   -7.7690328 -0.070706457 
   61100   0.98046902   -9.2476272            0   -7.7769257 -0.069230517 
   61200   0.98232004   -9.2237013            0   -7.7502233 -0.064738202 
   61300   0.97822104   -9.2253116            0   -7.7579822 -0.047101203 
   61400   0.98023558   -9.2482689            0   -7.7779176 -0.064092478 
   61500   0.97952906   -9.2330728            0   -7.7637813  -0.07471222 
   61600   0.98023804   -9.2364692            0   -7.7661142 -0.065438431 
   61700   0.98085446    -9.240514            0   -7.7692344 -0.070420222 
   61800   0.98109709   -9.2408616            0   -7.7692181 -0.067323824 
   61900   0.98033742   -9.2362351            0    -7.765731 -0.071923191 
   62000    0.9818693    -9.228902            0   -7.7561001 -0.080242624 
   62100   0.98123327   -9.2359148            0    -7.764067  -0.05682349 
   62200   0.98044328   -9.2328464            0   -7.7621836  -0.04619512 
   62300   0.98123439   -9.2455334            0   -7.7736839 -0.067356542 
   62400   0.98044004   -9.2318031            0   -7.7611452 -0.075373163 
   62500   0.97932194   -9.2454366            0   -7.7764558  -0.04320845 
   62600   0.98177168   -9.2402879            0   -7.7676325 -0.061909479 
   62700   0.98116615   -9.2384254            0   -7.7666783   -0.0665911 
   62800    0.9816627   -9.2416027            0   -7.7691107 -0.063674886 
   62900   0.98061461   -9.2369409            0   -7.7660211 -0.062377653 
   63000   0.98040245   -9.2302732            0   -7.7596717 -0.048179251 
   63100   0.98059629   -9.2431114            0    -7.772219  -0.06463389 
   63200   0.97972734   -9.2287575            0   -7.7591685 -0.042770859 
   63300   0.97909296   -9.2390075            0   -7.7703701 -0.068113204 
   63400   0.98007349   -9.2369244            0   -7.7668163 -0.046440782 
   63500   0.97909304   -9.2380829            0   -7.7694454 -0.057052643 
   63600   0.98122454   -9.2354018            0    -7.763567 -0.058169102 
   63700   0.98071794   -9.2438476            0   -7.7727728 -0.060840348 
   63800   0.97806653   -9.2438839            0   -7.7767862 -0.071338251 
   63900   0.98029713   -9.2370759            0   -7.7666323 -0.034316154 
   64000   0.97886863   -9.2433488            0    -7.775048 -0.063105565 
   64100   0.98038416   -9.2339024            0   -7.7633283 -0.046628156 
   64200   0.98093566   -9.2288916            0   -7.7574902 -0.032302425 
   64300   0.97976141   -9.2294786            0   -7.7598386 -0.052252606 
   64400   0.97891998   -9.2495532            0   -7.7811753 -0.082792037 
   64500   0.98010353   -9.2322068            0   -7.7620536 -0.062989512 
   64600   0.97921999   -9.2410033            0   -7.7721754  -0.06365215 
   64700   0.97921236    -9.241514            0   -7.7726976 -0.062397224 
   64800   0.98042096   -9.2346625            0   -7.7640331 -0.068848182 
   64900   0.97733837   -9.2185145            0   -7.7525091 -0.035171812 
   65000   0.97904491   -9.2451651            0   -7.7765999 -0.066779698 
   65100   0.97894695   -9.2422089            0   -7.7737906 -0.070734921 
   65200   0.98077449    -9.242762            0   -7.7716024 -0.055387599 
   65300   0.97926896   -9.2434532            0   -7.7745518 -0.084106596 
   65400   0.97923561   -9.2397317            0   -7.7708803 -0.064606402 
   65500   0.98055754   -9.2275219            0   -7.7566877 -0.040581479 
   65600   0.97933462   -9.2343395            0   -7.7653397 -0.073765281 
   65700   0.97968622   -9.2369144            0   -7.7673871   -0.0613137 
   65800   0.97885859   -9.2268025            0   -7.7585167 -0.057742907 
   65900   0.98042298   -9.2430851            0   -7.7724527 -0.063527125 
   66000   0.98085442    -9.247293            0   -7.7760135 -0.065953059 
   66100   0.97836657    -9.245667            0   -7.7781192 -0.055533012 
   66200   0.98018411   -9.2297802            0   -7.7595062 -0.074405647 
   66300   0.97956448    -9.233921            0   -7.7645763 -0.031149398 
   66400   0.97906241     -9.23365            0   -7.7650585 -0.083896565 
   66500   0.97882109   -9.2387879            0   -7.7705583 -0.038437604 
   66600   0.97865148   -9.2317189            0   -7.7637437 -0.049312695 
   66700   0.98013974   -9.2370948            0   -7.7668872  -0.05501895 
   66800   0.97885362   -9.2462589            0   -7.7779805 -0.069044199 
   66900   0.98035826   -9.2332037            0   -7.7626684 -0.068685729 
   67000   0.97972251   -9.2231728            0   -7.7535911 -0.023167096 
   67100   0.98018348   -9.2438207            0   -7.7735476 -0.041258296 
   67200   0.97857382   -9.2421972            0   -7.7743385 -0.088515653 
   67300   0.97900797    -9.241218            0   -7.7727081 -0.057961032 
   67400   0.97942019   -9.2355201            0   -7.7663919 -0.064105478 
   67500   0.97919952   -9.2402685            0   -7.7714713 -0.070746129 
   67600   0.97995027   -9.2301075            0   -7.7601841 -0.053057156 
   67700   0.98039929   -9.2360353            0   -7.7654385  -0.06394385 
   67800   0.97910776   -9.2305795            0     -7.76192 -0.061777121 
   67900   0.97924907   -9.2485769            0   -7.7797054 -0.066811162 
   68000   0.97771831    -9.249852            0   -7.7832766  -0.07856616 
   68100   0.98100505   -9.2394226            0   -7.7679171  -0.07378124 
   68200   0.97870605   -9.2282658            0   -7.7602088 -0.053963124 
   68300   0.97773874    -9.235751            0    -7.769145 -0.061467598 
   68400   0.97920107   -9.2385322            0   -7.7697327 -0.057427772 
   68500   0.98053595   -9.2347132            0   -7.7639113 -0.060083089 
   68600   0.97954708   -9.2469723            0   -7.7776538 -0.061798442 
   68700   0.97854771    -9.241133            0   -7.7733136 -0.068219694 
   68800   0.97860381   -9.2442456            0   -7.7763419 -0.076018914 
   68900   0.97971385   -9.2388429            0   -7.7692742 -0.056413826 
   69000   0.98068046   -9.2305076            0    -7.759489 -0.063224538 
   69100   0.97980311   -9.2339341            0   -7.7642315 -0.056735957 
   69200   0.97994485    -9.248529            0   -7.7786138 -0.071515068 
   69300   0.97949916   -9.2447971            0   -7.7755505 -0.065461558 
   69400   0.97756845   -9.2429552            0   -7.7766046 -0.070539411 
   69500   0.97941361    -9.236163            0   -7.7670447 -0.031240505 
   69600   0.97834102   -9.2268353            0   -7.7593258 -0.046289104 
   69700   0.97933109    -9.226312            0   -7.7573174 -0.043542378 
   69800   0.97775566   -9.2518212            0   -7.7851898 -0.063160242 
   69900   0.97828714   -9.2443308            0   -7.7769022 -0.054589023 
   70000   0.98000365   -9.2447636            0   -7.7747603 -0.073147206 
Loop time of 24856.9 on 14 procs for 70000 steps with 704483 atoms

Performance: 2433.126 tau/day, 2.816 timesteps/s
98.9% CPU use with 14 MPI tasks x 1 OpenMP threads

MPI task timing breakdown:
Section |  min time  |  avg time  |  max time  |%varavg| %total
---------------------------------------------------------------
Pair    | 3363.5     | 10694      | 18773      |5843.7 | 43.02
Neigh   | 481.75     | 1474.8     | 3306.8     |2978.7 |  5.93
Comm    | 1418.5     | 7763.7     | 12822      |4733.1 | 31.23
Output  | 476.75     | 591.78     | 847.95     | 595.2 |  2.38
Modify  | 34.763     | 377.55     | 803.39     |1451.7 |  1.52
Other   |            | 3955       |            |       | 15.91

Nlocal:        50320.2 ave      177723 max           0 min
Histogram: 8 2 0 0 0 0 0 0 2 2
Nghost:        10070.1 ave       30031 max           0 min
Histogram: 6 2 2 0 0 0 0 0 2 2
Neighs:    1.69752e+06 ave 5.99088e+06 max           0 min
Histogram: 10 0 0 0 0 0 0 0 2 2
FullNghs:  3.39504e+06 ave 1.20623e+07 max           0 min
Histogram: 10 0 0 0 0 0 0 0 2 2

Total # of neighbors = 47530514
Ave neighs/atom = 67.468646
Neighbor list builds = 7000
Dangerous builds = 7000

Please see the log.cite file for references relevant to this simulation

Total wall time: 6:54:18
