

units 		          lj
dimension	          3
boundary	          p p p
neighbor	          0.3 bin
neigh_modify        every 1 check yes

atom_style	        mdpd


#region     mdpd     block -25 25 -25 25 0 ${WaveLength} units box
#create_box          1 mdpd

#lattice             fcc 7.7
#region     tube     cylinder z 0 0 v_Radius INF INF
#create_atoms        1 region tube

read_data           initial_perturbed_14_80.data
Reading data file ...
  orthogonal box = (-42 -42 0) to (42 42 196.34954)
  2 by 2 by 3 MPI processor grid
  reading atoms ...
  1179775 atoms
  read_data CPU = 1.839 seconds


pair_style          hybrid/overlay mdpd/rhosum mdpd 1.0 1.0 9872598
pair_coeff          1 1 mdpd/rhosum  0.75
pair_coeff          1 1 mdpd         -80 25 18.0 1.0 0.75
mass                1 1

compute             mythermo all temp
thermo              500
thermo_modify       temp mythermo
thermo_modify       flush yes


velocity            all create 1.0 2093 loop local dist gaussian
comm_modify         vel yes
fix         mvv     all mvv/dpd 0.65

timestep            0.01

dump        mydump  all atom 100 thread_14_80.lammpstrj
dump_modify mydump scale no

dump force all custom 100 dump.force_14_80 id fx fy fz
dump vel all custom 100 dump.vel_14_80 id vx vy vz
#dump full all custom 100 dump.all id x y z vx vy vz fx fy fz

run                 300000

CITE-CITE-CITE-CITE-CITE-CITE-CITE-CITE-CITE-CITE-CITE-CITE-CITE

Your simulation uses code contributions which should be cited:

- pair mdpd command:

@Article{ZLi2013_POF,
 author = {Li, Z. and Hu, G.H. and Wang, Z.L. and Ma Y.B. and Zhou, Z.W.},
 title = {Three dimensional flow structures in a moving droplet on substrate: a dissipative particle dynamics study},
 journal = {Physics of Fluids},
 year = {2013},
 volume = {25},
 pages = {072103}
}

CITE-CITE-CITE-CITE-CITE-CITE-CITE-CITE-CITE-CITE-CITE-CITE-CITE

Generated 0 of 0 mixed pair_coeff terms from geometric mixing rule
Neighbor list info ...
  update every 1 steps, delay 10 steps, check yes
  max neighbors/atom: 2000, page size: 100000
  master list distance cutoff = 1.3
  ghost atom cutoff = 1.3
  binsize = 0.65, bins = 130 130 303
  2 neighbor lists, perpetual/occasional/extra = 2 0 0
  (1) pair mdpd/rhosum, perpetual
      attributes: full, newton on
      pair build: full/bin/atomonly
      stencil: full/bin/3d
      bin: standard
  (2) pair mdpd, perpetual, half/full from (1)
      attributes: half, newton on
      pair build: halffull/newton
      stencil: none
      bin: none
Per MPI rank memory allocation (min/avg/max) = 99.38 | 113.8 | 121.3 Mbytes
   Step          Temp          E_pair         E_mol          TotEng         Press     
         0   1             -10.586095      0             -9.0860966      7.7802975    
       500   0.97791039    -17.741128      0             -16.274264     -2.6550059    
      1000   0.97361861    -15.925933      0             -14.465506      0.39786916   
      1500   0.96584335    -16.26192       0             -14.813157     -0.18841467   
      2000   0.96532912    -16.361526      0             -14.913533     -0.32471951   
      2500   0.96293624    -16.164573      0             -14.72017      -0.01103934   
      3000   0.96203156    -16.33752       0             -14.894474     -0.29881671   
      3500   0.96282872    -16.217463      0             -14.773221     -0.094995488  
      4000   0.96310075    -16.287168      0             -14.842518     -0.22454204   
      4500   0.96217345    -16.275096      0             -14.831837     -0.20164192   
      5000   0.96325994    -16.261982      0             -14.817094     -0.16342873   
      5500   0.96221148    -16.265994      0             -14.822678     -0.17475514   
      6000   0.96162923    -16.263377      0             -14.820935     -0.19011872   
      6500   0.96363528    -16.270162      0             -14.82471      -0.20253446   
      7000   0.96385083    -16.27122       0             -14.825445     -0.18725552   
      7500   0.96262088    -16.259185      0             -14.815255     -0.17608496   
      8000   0.96309373    -16.273776      0             -14.829136     -0.1956355    
      8500   0.96265785    -16.267507      0             -14.823522     -0.17558265   
      9000   0.96432458    -16.274637      0             -14.828151     -0.23421266   
      9500   0.96277114    -16.271581      0             -14.827425     -0.18284481   
     10000   0.96260325    -16.268026      0             -14.824122     -0.2026136    
     10500   0.96360106    -16.265445      0             -14.820045     -0.21234742   
     11000   0.9631891     -16.268         0             -14.823218     -0.16969886   
     11500   0.96447046    -16.277613      0             -14.830909     -0.17922551   
     12000   0.963041      -16.267634      0             -14.823074     -0.18970836   
     12500   0.96274967    -16.267104      0             -14.822981     -0.19439192   
     13000   0.96226953    -16.267712      0             -14.824309     -0.18277217   
     13500   0.96409946    -16.277297      0             -14.831149     -0.18892742   
     14000   0.96308594    -16.265881      0             -14.821253     -0.15957328   
     14500   0.96319432    -16.277387      0             -14.832597     -0.2033949    
     15000   0.96196351    -16.258621      0             -14.815677     -0.17607765   
     15500   0.96417553    -16.277184      0             -14.830922     -0.17878488   
     16000   0.96382433    -16.264739      0             -14.819004     -0.20663392   
     16500   0.96465547    -16.262656      0             -14.815674     -0.17747345   
     17000   0.96267541    -16.270985      0             -14.826973     -0.20926468   
     17500   0.96393648    -16.272356      0             -14.826453     -0.21134345   
     18000   0.96251407    -16.268448      0             -14.824679     -0.19353955   
     18500   0.96402412    -16.268799      0             -14.822764     -0.20483561   
     19000   0.96406583    -16.273908      0             -14.827811     -0.19440922   
     19500   0.96388786    -16.276703      0             -14.830872     -0.17798071   
     20000   0.96285268    -16.265784      0             -14.821506     -0.2088042    
     20500   0.96471778    -16.269547      0             -14.822472     -0.17835024   
     21000   0.96435841    -16.274734      0             -14.828197     -0.18614021   
     21500   0.96355885    -16.267928      0             -14.822591     -0.1939788    
     22000   0.96323188    -16.266019      0             -14.821173     -0.18455697   
     22500   0.96432947    -16.257974      0             -14.811481     -0.19839591   
     23000   0.96391289    -16.279983      0             -14.834115     -0.1986998    
     23500   0.96300543    -16.272055      0             -14.827548     -0.19299583   
     24000   0.96378596    -16.261018      0             -14.81534      -0.17625588   
     24500   0.96339829    -16.264368      0             -14.819272     -0.18265436   
     25000   0.96444934    -16.263722      0             -14.81705      -0.19633285   
     25500   0.96338463    -16.264089      0             -14.819013     -0.18237376   
     26000   0.96379789    -16.272456      0             -14.82676      -0.17002181   
     26500   0.96515933    -16.266826      0             -14.819089     -0.16660623   
     27000   0.96503166    -16.284495      0             -14.836948     -0.21066176   
     27500   0.96360461    -16.259152      0             -14.813747     -0.17353539   
     28000   0.9643138     -16.25413       0             -14.807661     -0.17017402   
     28500   0.96459685    -16.264908      0             -14.818014     -0.19159144   
     29000   0.96516251    -16.271871      0             -14.824129     -0.19182507   
     29500   0.96312192    -16.273595      0             -14.828913     -0.19996868   
     30000   0.96424971    -16.26587       0             -14.819496     -0.18002246   
     30500   0.96392263    -16.26985       0             -14.823967     -0.19068046   
     31000   0.96588299    -16.261047      0             -14.812224     -0.16926143   
     31500   0.96643567    -16.272439      0             -14.822787     -0.19591237   
     32000   0.96496889    -16.266648      0             -14.819196     -0.1514234    
     32500   0.96487107    -16.270468      0             -14.823162     -0.18391334   
     33000   0.9636413     -16.266471      0             -14.82101      -0.17093259   
     33500   0.96613508    -16.270071      0             -14.82087      -0.1620692    
     34000   0.96505381    -16.272722      0             -14.825142     -0.17437409   
     34500   0.96599015    -16.258977      0             -14.809993     -0.16255375   
