ITEM: TIMESTEP
5000
ITEM: NUMBER OF ATOMS
56503
ITEM: BOX BOUNDS pp pp pp
-1.8000000000000000e+01 1.8000000000000000e+01
-1.8000000000000000e+01 1.8000000000000000e+01
0.0000000000000000e+00 6.2831853071795862e+01
ITEM: ATOMS id type x y z
110 1 -0.49241 -8.72048 0.632003
1029 1 -2.67926 -8.24328 0.537008
37563 1 -2.74706 -8.09588 0.104669
35853 1 -2.13689 -8.31695 0.190407
671 1 -1.7973 -8.39185 0.653945
42027 1 -1.71116 -8.22741 0.0323307
41313 1 -1.32533 -8.50097 0.241957
29132 1 -0.773538 -8.25816 0.594662
13766 1 -1.01078 -8.11939 0.238006
3548 1 -0.720038 -8.47459 0.12158
1420 1 -0.231171 -8.30828 0.396626
13699 1 -0.00970657 -8.00394 0.23663
493 1 -4.16068 -7.36858 0.255014
14 1 -4.51262 -7.47609 0.640244
314 1 -3.85224 -7.63927 0.218931
13743 1 -3.46607 -7.50975 0.056809
10580 1 -3.78417 -7.92162 0.466778
41606 1 -3.14475 -7.92899 0.368922
1667 1 -3.11199 -7.65832 0.586749
28513 1 -2.53457 -7.40287 0.526229
499 1 -2.30264 -7.69031 0.0281583
908 1 -2.64603 -7.59028 0.0427274
39216 1 -2.05362 -7.40996 0.270957
258 1 -1.49821 -7.56754 0.636973
30133 1 -1.67487 -7.66827 0.218061
37044 1 -1.97833 -7.95259 0.596473
8649 1 -1.00255 -7.63342 0.142583
6894 1 -0.527085 -7.77749 0.492065
42247 1 -0.566458 -7.79606 0.0488212
13725 1 -5.35373 -6.78599 0.224541
2 1 -4.9959 -6.96046 0.420771
13521 1 -4.1786 -6.73105 0.4556
13120 1 -4.46591 -6.82767 0.0977618
1723 1 -3.39635 -7.13504 0.212636
13346 1 -3.57449 -7.23554 0.575353
6926 1 -3.80108 -6.80689 0.0877667
36 1 -3.98788 -7.181 0.570931
38797 1 -2.87836 -7.02046 0.461721
632 1 -2.81005 -6.69698 0.0773728
660 1 -2.00817 -6.73342 0.0891641
13476 1 -2.37641 -6.82518 0.466834
803 1 -1.38422 -7.09651 0.236056
640 1 -1.72968 -6.93907 0.591591
13131 1 -1.04831 -6.77037 0.397626
41705 1 -1.09978 -7.31864 0.424663
1744 1 -0.679186 -7.1954 0.137383
237 1 -0.314185 -7.26184 0.353426
6627 1 -5.40236 -6.35587 0.323278
13785 1 -5.78684 -6.19173 0.0879396
13497 1 -4.69983 -6.48394 0.505899
1201 1 -5.09321 -6.0539 0.222943
717 1 -4.32534 -6.18002 0.00680458
1658 1 -3.84264 -6.45069 0.40278
824 1 -3.5721 -6.16491 0.128205
512 1 -3.14157 -6.63903 0.312994
907 1 -2.88558 -6.06454 0.476304
13514 1 -3.19625 -6.37769 0.541538
888 1 -2.58426 -6.52878 0.606406
887 1 -2.48484 -6.20109 0.270571
9772 1 -2.21609 -6.36547 0.0313391
29821 1 -1.73939 -6.5582 0.417964
10056 1 -1.66929 -6.04619 0.395495
35208 1 -1.24367 -6.40038 0.612799
42005 1 -1.03459 -6.21909 0.147195
1457 1 -0.299738 -6.26805 0.174652
37148 1 -0.538391 -6.58157 0.416942
41979 1 -0.0328629 -6.45061 0.0171767
13544 1 -6.14227 -5.62469 0.214984
13424 1 -6.25587 -5.95933 0.645627
11182 1 -6.54667 -5.5315 0.311418
577 1 -5.49363 -5.66151 0.054824
13808 1 -5.38743 -5.37 0.639343
28243 1 -5.74564 -5.73663 0.48274
7129 1 -5.171 -5.51241 0.173139
140 1 -4.95455 -5.92015 0.595302
9029 1 -4.4258 -5.62299 0.613503
13512 1 -4.5709 -5.78042 0.259492
105 1 -3.97493 -5.8692 0.309191
13226 1 -3.90307 -5.34289 0.0745871
24 1 -2.92082 -5.51592 0.428566
1077 1 -3.31324 -5.83388 0.309552
903 1 -2.46568 -5.52124 0.425619
1017 1 -2.21956 -5.9512 0.636154
526 1 -2.29467 -5.61244 0.012812
29137 1 -1.90837 -5.60038 0.187068
1101 1 -0.879128 -5.42445 0.0605773
28310 1 -0.66892 -5.98499 0.496206
13551 1 -1.27239 -5.65903 0.276496
951 1 -0.642269 -5.40157 0.602523
1439 1 -0.39985 -5.51191 0.100446
281 1 -6.7848 -4.8782 0.415925
11197 1 -7.23132 -4.73913 0.0177603
666 1 -6.02488 -5.14668 0.348559
13812 1 -6.28719 -4.86658 0.459627
365 1 -5.6019 -4.98245 0.603257
13542 1 -5.10867 -4.95799 0.149909
13866 1 -4.76095 -5.18296 0.385079
13251 1 -4.23873 -5.07031 0.0889017
8494 1 -4.29885 -4.68333 0.554105
1598 1 -3.657 -5.15428 0.431208
709 1 -3.38586 -4.8836 0.160226
1681 1 -3.15212 -4.68203 0.5273
496 1 -2.87392 -5.12573 0.506306
28570 1 -2.28267 -5.00528 0.268608
13566 1 -1.57957 -4.77856 0.177231
1294 1 -1.39936 -5.32998 0.42309
168 1 -1.85166 -5.21356 0.549923
13129 1 -1.74755 -4.75974 0.609654
42301 1 -0.796448 -4.99951 0.644452
13822 1 -1.11878 -4.79531 0.130737
13744 1 -0.837745 -4.94172 0.0218544
29184 1 -0.241573 -4.92428 0.576287
38577 1 -0.21039 -5.00053 0.00909898
676 1 -7.57624 -4.46775 0.279691
780 1 -7.08087 -4.30577 0.442993
305 1 -6.31848 -4.04777 0.346909
13219 1 -6.02013 -4.21162 0.11573
12752 1 -6.64072 -4.26894 0.391802
1114 1 -5.4599 -4.55973 0.388034
551 1 -5.68388 -4.02745 0.471163
1317 1 -5.94971 -4.50851 0.516201
13100 1 -5.09269 -4.17329 0.482634
13304 1 -4.597 -4.48781 0.20511
1097 1 -4.05123 -4.43803 0.375865
1005 1 -3.71897 -4.12328 0.252697
1474 1 -3.62238 -4.56169 0.653494
185 1 -2.76857 -4.37968 0.491217
13631 1 -3.21741 -4.10466 0.304966
344 1 -2.17945 -4.42558 0.334625
807 1 -2.02924 -4.0526 0.362142
556 1 -1.43809 -4.34467 0.530138
510 1 -1.09492 -4.28333 0.138416
247 1 -0.498175 -4.50355 0.387664
29370 1 -0.19927 -4.37409 0.286392
13541 1 -7.43938 -3.48355 0.357515
13838 1 -7.84938 -3.90701 0.579196
25444 1 -7.99118 -3.44552 0.281809
75 1 -6.67086 -3.5061 0.615666
13569 1 -7.31934 -3.88731 0.595166
413 1 -7.13426 -3.81389 0.140225
9139 1 -6.06692 -3.63524 0.509132
13506 1 -6.45557 -3.4062 0.181781
13948 1 -5.40892 -3.34903 0.311586
13328 1 -5.46143 -3.69118 0.128725
13257 1 -4.92983 -3.69402 0.207876
12748 1 -4.96025 -3.34404 0.560384
9537 1 -4.55401 -3.97664 0.241717
13967 1 -4.26233 -3.69824 0.219122
384 1 -3.81226 -3.75432 0.435481
395 1 -2.81447 -3.51404 0.140779
128 1 -3.22984 -3.4934 0.288806
13484 1 -2.60413 -3.82618 0.549351
13869 1 -2.27207 -3.36057 0.167196
42144 1 -2.54046 -3.96595 0.147591
13958 1 -1.37538 -3.77436 0.102238
959 1 -1.93821 -3.53096 0.462619
13198 1 -1.42293 -3.53168 0.564241
1222 1 -1.86126 -3.7631 0.00184855
13799 1 -0.703941 -3.34648 0.536642
13463 1 -1.0626 -3.69497 0.282709
853 1 -0.72265 -3.83466 0.438467
1185 1 -0.266129 -3.38576 0.453127
27435 1 -8.3123 -3.12432 0.110328
18140 1 -7.84196 -2.98188 0.3113
300 1 -7.27152 -2.92202 0.424534
197 1 -7.00067 -3.28201 0.263305
11121 1 -6.15367 -3.02931 0.413588
1003 1 -6.54637 -2.7953 0.413652
328 1 -5.52605 -2.77106 0.324363
308 1 -5.79162 -3.14902 0.02565
1940 1 -4.68479 -2.72248 0.405006
2641 1 -4.37764 -3.28608 0.407505
8786 1 -4.31894 -2.90904 0.0540677
27874 1 -3.80869 -3.01451 0.653354
7997 1 -3.61147 -3.10573 0.327459
45086 1 -2.95863 -2.92185 0.239526
13357 1 -2.58658 -3.04483 0.423386
9339 1 -1.47811 -2.9886 0.423163
927 1 -1.90163 -3.10577 0.280469
882 1 -1.34316 -3.20592 0.0166735
28157 1 -0.69651 -2.77588 0.186118
408 1 -1.04466 -2.98247 0.424235
28627 1 -0.111805 -2.86483 0.216476
28371 1 -0.505693 -2.87078 0.653499
13392 1 -8.27313 -2.49487 0.412932
301 1 -7.34112 -2.27758 0.562516
13804 1 -7.36786 -2.5237 0.151566
9024 1 -7.99069 -2.34013 0.326403
13111 1 -6.75179 -2.33086 0.367071
27839 1 -5.8236 -2.50318 0.182184
13621 1 -5.6109 -2.07952 0.54317
6030 1 -5.99567 -2.47271 0.630055
298 1 -5.49274 -2.27238 0.095788
7076 1 -4.9924 -2.14942 0.380891
182 1 -5.26742 -2.63335 0.637683
786 1 -4.07893 -2.57437 0.489246
13867 1 -4.33548 -2.40428 0.0192046
582 1 -3.92481 -2.0044 0.205163
9986 1 -3.4496 -2.57553 0.333154
14225 1 -3.4241 -2.4388 0.00609468
12675 1 -2.88966 -2.36839 0.484958
859 1 -2.50241 -2.02046 0.562233
13577 1 -2.04641 -2.59241 0.575347
9750 1 -2.38249 -2.57729 0.361408
583 1 -1.79974 -2.15935 0.380705
765 1 -1.61005 -2.45846 0.311519
14231 1 -0.960936 -2.27142 0.539312
13576 1 -1.27225 -2.44751 0.013995
14845 1 -0.716863 -2.16521 0.203526
42622 1 -0.120297 -2.4278 0.223402
12126 1 -8.18383 -1.4651 0.269838
13585 1 -8.41898 -1.99413 0.125752
7668 1 -7.78174 -1.65694 0.47603
13137 1 -7.5044 -1.95157 0.394847
1396 1 -7.38331 -1.77266 0.0577007
14100 1 -6.89167 -1.89138 0.269218
27425 1 -7.03921 -1.50569 0.463229
1257 1 -6.12473 -1.98348 0.533322
979 1 -6.52522 -1.54916 0.44582
662 1 -6.12752 -1.93893 0.138865
103 1 -5.56416 -1.46512 0.56505
12959 1 -5.98444 -1.39459 0.393343
13363 1 -4.97229 -1.50822 0.374085
13862 1 -5.30894 -1.7819 0.174453
24211 1 -4.39054 -1.86751 0.409554
15085 1 -4.35496 -1.37883 0.165876
26394 1 -3.53361 -1.58473 0.584247
13873 1 -3.43919 -1.94552 0.484899
13174 1 -3.99592 -1.3926 0.260643
9026 1 -3.36646 -1.39781 0.21147
1933 1 -3.16085 -1.99054 0.173977
987 1 -2.428 -1.46012 0.518601
14471 1 -2.03074 -1.78595 0.431947
1914 1 -2.49868 -1.96663 0.0741461
27884 1 -1.58448 -1.56803 0.382541
14462 1 -1.30249 -1.81077 0.237685
754 1 -0.957903 -1.42535 0.425103
42176 1 -0.163319 -1.7434 0.542043
355 1 -0.58654 -1.7629 0.207236
7442 1 -0.454686 -1.37782 0.0114888
464 1 -8.194 -1.10082 0.472792
27038 1 -7.50798 -1.02554 0.213334
13368 1 -7.94614 -0.947068 0.347502
27196 1 -6.82648 -1.05266 0.166337
14222 1 -6.0444 -0.873172 0.218206
13617 1 -6.43741 -1.02359 0.294032
6959 1 -5.37589 -1.04846 0.405175
13922 1 -5.6746 -0.788034 0.503093
19 1 -5.85951 -1.31251 0.0257755
8526 1 -4.74427 -0.930941 0.411716
195 1 -5.01097 -0.709912 0.140534
13864 1 -4.21616 -0.916236 0.430952
13683 1 -4.36755 -0.675753 0.023472
13901 1 -3.54782 -0.896701 0.234952
13919 1 -3.86902 -1.04234 0.630905
13059 1 -3.02611 -1.05707 0.558783
399 1 -2.96551 -1.30744 0.236362
27571 1 -2.23502 -0.719953 0.547205
427 1 -2.54554 -0.8383 0.164117
608 1 -2.03119 -1.11412 0.421767
43486 1 -1.85816 -0.802993 0.196866
13543 1 -1.20012 -1.09595 0.321927
28437 1 -0.950807 -0.837453 0.0358509
28527 1 -0.651309 -0.826383 0.53727
53007 1 -0.38409 -0.994993 0.357033
14878 1 -8.19884 -0.0125751 0.559513
1348 1 -8.50684 -0.418982 0.482314
16473 1 -8.27757 -0.580992 0.0908262
27646 1 -8.40664 -0.11424 0.0259397
14186 1 -7.41659 -0.521333 0.59615
14428 1 -7.38803 -0.0333071 0.643408
13643 1 -7.77775 -0.458604 0.161617
13658 1 -6.95473 -0.615604 0.486711
14881 1 -6.67235 -0.372401 0.318265
27427 1 -6.77192 -0.0538236 0.0211588
15444 1 -6.11259 -0.366005 0.465247
27304 1 -5.58069 -0.287379 0.165414
388 1 -5.49183 -0.359346 0.625272
5564 1 -4.88513 -0.374172 0.604384
389 1 -4.57197 -0.429642 0.527153
533 1 -4.29093 -0.113612 0.510536
14687 1 -3.60424 -0.151394 0.437024
26212 1 -3.84514 -0.456113 0.152046
14417 1 -3.08251 -0.3961 0.202866
13221 1 -2.70515 -0.471042 0.56804
15067 1 -3.17422 -0.604626 0.414558
14446 1 -2.56971 -0.0391331 0.514107
42385 1 -1.46968 -0.51516 0.123188
27843 1 -1.97656 -0.248225 0.497622
27930 1 -0.82496 -0.238554 0.577488
13883 1 -1.25572 -0.496176 0.584682
43278 1 -0.513075 -0.544071 0.087919
49482 1 -0.187969 -0.459574 0.524676
48991 1 -0.357571 -0.274442 0.175715
41324 1 -3.2457 -8.08546 1.07751
28514 1 -2.7835 -8.05634 1.10546
1691 1 -2.13207 -8.28855 1.08608
35270 1 -1.85064 -8.03336 1.13209
41812 1 -1.38297 -8.18473 0.744373
1415 1 -0.963648 -8.02663 0.88778
698 1 -1.14261 -8.61016 0.880352
29679 1 -0.159878 -8.4767 1.0151
42025 1 -0.453682 -8.17601 1.09611
7022 1 -3.88564 -7.56782 0.941733
30561 1 -3.49593 -7.76555 1.17042
680 1 -3.2824 -7.47049 0.862818
9236 1 -2.87027 -7.63351 1.15305
1027 1 -2.44182 -7.49209 1.21258
892 1 -2.44201 -7.87933 0.665024
28450 1 -2.17295 -7.65529 0.912983
656 1 -1.60452 -7.37634 0.95412
1038 1 -0.936233 -7.66598 0.868845
29536 1 -0.623815 -7.58848 1.23353
700 1 -0.239119 -7.7909 0.718568
29276 1 -0.241457 -7.40684 1.03841
13494 1 -5.3717 -6.86671 0.737331
13496 1 -5.02394 -6.84073 1.16893
9265 1 -4.87221 -7.25638 0.932433
364 1 -4.12469 -7.12018 1.16524
13760 1 -4.37857 -6.74 1.11215
13459 1 -4.5198 -6.97393 0.79542
521 1 -3.68663 -6.85367 0.849459
508 1 -3.70779 -6.67963 1.14659
516 1 -2.97829 -6.95045 0.906106
231 1 -2.02938 -7.07721 0.865691
34917 1 -2.57436 -7.08633 1.05657
1894 1 -2.23435 -6.69069 1.10617
1690 1 -1.48656 -6.68737 1.03579
29292 1 -1.8899 -7.2052 1.28415
523 1 -1.16753 -6.9185 0.976887
29134 1 -0.845014 -7.20342 0.766096
28746 1 -0.177334 -6.96404 1.27454
7008 1 -0.476006 -7.12767 0.706614
667 1 -6.02417 -6.06318 1.18557
749 1 -5.43756 -6.14521 0.790166
11375 1 -5.78962 -6.4217 0.782278
690 1 -5.41253 -6.58728 1.26255
1419 1 -4.98997 -6.57168 0.775495
8134 1 -5.0183 -6.03655 0.961463
905 1 -4.24982 -6.18976 0.717051
331 1 -4.60666 -6.46749 1.20778
324 1 -4.04967 -6.25651 0.955143
490 1 -3.59608 -6.17957 0.855597
657 1 -3.12362 -6.29504 1.13247
304 1 -3.21248 -6.61799 1.12783
536 1 -2.52484 -6.26343 1.03126
1062 1 -1.57746 -6.13645 1.08582
13879 1 -1.98752 -6.40837 0.810824
974 1 -0.991612 -6.30869 0.915722
59 1 -0.656556 -6.57688 0.846392
13348 1 -0.154958 -6.248 0.788149
29147 1 -0.62104 -6.16689 1.3061
1206 1 -0.171109 -6.15965 1.27463
8881 1 -6.04997 -5.40852 0.796085
284 1 -6.64121 -5.75369 0.982585
1072 1 -6.62228 -5.39356 0.694313
13821 1 -5.66718 -5.83723 0.988082
1376 1 -5.5251 -5.64552 1.28992
10082 1 -5.0984 -5.43925 1.06825
11775 1 -4.5711 -5.90161 1.1474
767 1 -4.36266 -5.6296 1.15333
13205 1 -3.82794 -5.53746 1.12073
13726 1 -3.7868 -5.67823 0.663392
1728 1 -3.34935 -5.48501 0.692661
772 1 -2.81169 -5.40551 0.969585
13492 1 -2.87546 -5.90101 0.974736
943 1 -3.29765 -5.74158 1.0495
550 1 -2.24236 -5.80932 0.92368
797 1 -2.37484 -5.33912 1.28433
945 1 -1.72127 -5.44779 1.03276
6628 1 -1.62354 -5.86691 0.721999
1583 1 -0.841349 -5.71864 1.13358
630 1 -1.14733 -5.70288 0.89994
727 1 -0.436833 -5.89122 0.713951
9326 1 -0.0653443 -5.75822 1.22273
28771 1 -0.427423 -5.52853 1.22502
3219 1 -7.01872 -4.99332 1.03983
13775 1 -7.19598 -4.69998 0.818086
13184 1 -6.49498 -5.318 1.25416
13218 1 -6.54077 -4.90646 0.855292
12416 1 -6.17795 -4.90117 1.1471
272 1 -5.69799 -5.17836 1.05276
122 1 -4.72015 -5.2556 1.06913
706 1 -5.23616 -4.95749 1.15867
1055 1 -4.9581 -4.91257 0.742668
2456 1 -4.60047 -4.67447 1.21082
457 1 -4.17456 -5.2068 0.69086
678 1 -4.38218 -4.86036 0.948728
580 1 -3.74757 -4.99677 0.918896
112 1 -3.11157 -5.10208 1.00968
1076 1 -2.46994 -4.95064 0.684614
1019 1 -2.07716 -5.20853 0.846378
12761 1 -2.58738 -4.77924 1.15231
1039 1 -1.37359 -5.20471 1.14298
13801 1 -1.90867 -4.88819 1.24949
555 1 -1.60418 -4.74145 1.03754
34 1 -1.1437 -4.89947 0.717493
1026 1 -0.759521 -5.09255 1.23227
42058 1 -0.274158 -4.74346 1.09206
663 1 -7.45643 -4.56172 0.896462
13857 1 -7.25835 -4.01117 1.08614
13806 1 -6.8777 -4.13181 1.07202
386 1 -6.2338 -4.00944 1.00918
12960 1 -6.54983 -4.50649 0.836918
8658 1 -6.1936 -4.29223 0.92376
10048 1 -5.53234 -4.56635 0.898733
572 1 -5.36798 -4.30487 0.919154
8640 1 -4.76298 -4.41091 0.684855
1286 1 -4.94658 -4.55628 1.20857
668 1 -4.52556 -4.09672 1.09728
74 1 -4.21363 -4.09669 0.754139
476 1 -3.87509 -4.22407 0.937068
1149 1 -3.92108 -4.56684 1.16834
452 1 -3.5286 -4.01673 1.28842
13921 1 -3.27161 -4.04724 0.776551
1044 1 -3.27815 -4.57798 1.11539
14165 1 -2.88759 -4.47865 0.985621
699 1 -2.23551 -4.53503 0.78532
858 1 -2.27548 -4.06116 0.89696
722 1 -1.48532 -4.0081 0.677262
448 1 -1.87385 -4.14113 1.00078
606 1 -1.23254 -4.13022 1.23077
6470 1 -1.30965 -4.49174 1.16533
61 1 -0.868091 -4.39518 0.702938
30034 1 -0.591725 -4.37327 0.982277
29693 1 -0.594914 -4.08188 1.30645
13508 1 -7.95419 -3.56286 0.973954
1882 1 -7.66965 -3.90762 1.07715
183 1 -6.71303 -3.85964 0.692054
7075 1 -6.81033 -3.5234 1.20732
707 1 -7.15258 -3.46636 0.975408
13188 1 -6.02429 -3.3549 1.16925
795 1 -5.43855 -3.76001 0.726849
332 1 -5.75756 -3.84585 1.20649
817 1 -5.86843 -3.46808 0.703907
637 1 -5.01269 -3.69191 1.06041
341 1 -4.80021 -3.83673 0.749266
692 1 -4.25178 -3.56328 0.974706
1458 1 -3.59127 -3.55517 1.14704
295 1 -3.83292 -3.56623 0.780361
446 1 -3.28248 -3.44732 0.728295
517 1 -2.68835 -3.4218 0.88965
42236 1 -2.94891 -3.98046 1.05401
47258 1 -2.31062 -3.46757 0.893948
928 1 -2.59515 -3.95005 1.22668
1296 1 -1.51211 -3.76616 1.2446
29025 1 -1.61003 -3.41681 1.20589
1344 1 -1.99494 -3.60574 1.03282
7108 1 -1.03112 -3.85589 0.915732
113 1 -0.719979 -3.69906 1.02374
12401 1 -0.442773 -3.99242 0.66155
950 1 -0.500181 -3.42196 1.09658
28423 1 -0.106458 -3.74075 0.74416
1985 1 -0.0441603 -3.89418 1.09045
13616 1 -8.08739 -2.84066 1.15591
13157 1 -8.11547 -3.04508 0.756646
393 1 -7.59762 -3.22234 0.932085
1092 1 -7.13984 -2.81706 0.96675
383 1 -6.92366 -3.04239 1.23854
13538 1 -6.82786 -3.01282 0.686636
13761 1 -6.41508 -3.21362 0.960086
9025 1 -5.55748 -3.13734 0.780269
13734 1 -5.96254 -2.82649 1.00928
33 1 -5.33768 -3.22228 1.23895
484 1 -4.94033 -2.79732 1.27496
13334 1 -4.97096 -2.88287 0.802888
904 1 -4.34628 -3.06991 0.776162
52 1 -4.31826 -2.74316 1.06743
256 1 -4.65908 -3.27478 1.1582
13650 1 -3.59394 -3.12895 1.27491
20459 1 -3.13883 -2.86336 0.73719
805 1 -2.73338 -2.95346 1.24115
28920 1 -2.0709 -3.07812 0.747039
1951 1 -2.56214 -2.87674 0.925896
696 1 -1.96135 -2.90904 1.29567
1363 1 -1.41049 -2.67692 0.821421
21041 1 -0.951954 -3.07427 1.14599
1243 1 -1.14478 -3.33243 0.890363
462 1 -0.368786 -2.97366 1.28032
25796 1 -8.32176 -2.08281 1.24183
14681 1 -8.13497 -2.10558 0.790773
13539 1 -7.6799 -2.63787 0.834528
781 1 -7.74895 -2.27903 1.06987
8760 1 -7.04803 -2.30331 0.855739
162 1 -6.17297 -2.04462 1.28023
136 1 -6.42135 -2.63834 1.02482
392 1 -6.58958 -2.2233 0.839437
15105 1 -5.49997 -2.62071 1.27453
28214 1 -5.63088 -2.42397 0.953686
433 1 -5.06418 -2.23746 0.902995
13622 1 -4.62581 -2.42823 0.860879
616 1 -4.38207 -2.01769 1.13787
24672 1 -3.97896 -2.37103 0.667508
565 1 -3.40833 -2.08213 0.94625
193 1 -3.44823 -2.65005 0.852453
209 1 -3.86823 -2.62297 1.15665
1654 1 -3.90591 -2.06114 0.981627
152 1 -3.0067 -2.41079 0.943325
351 1 -2.45104 -2.4515 1.06493
418 1 -2.35115 -2.00233 0.924118
31790 1 -1.75991 -2.65072 1.07332
14146 1 -1.87316 -2.17752 0.937234
13663 1 -0.943634 -2.55381 0.910515
35315 1 -1.32059 -2.14946 0.701964
43921 1 -0.759515 -2.4101 1.1833
29247 1 -1.31945 -2.10824 1.06506
15287 1 -0.132165 -2.58384 0.908252
43050 1 -0.359701 -2.24602 0.656716
13807 1 -8.33295 -1.72976 0.725023
595 1 -8.1663 -1.62289 1.30218
25228 1 -7.7161 -1.92351 1.06046
14152 1 -7.93055 -1.42429 0.986419
155 1 -6.68019 -1.7904 1.22717
174 1 -7.30084 -1.75435 0.932582
981 1 -6.79427 -1.71756 0.89113
216 1 -6.1283 -1.90355 1.00694
327 1 -6.35677 -1.33941 1.3063
12975 1 -5.55013 -1.90631 1.14309
390 1 -5.73102 -1.62663 0.965392
13644 1 -4.80184 -1.43891 1.2357
594 1 -5.25264 -1.41368 1.11835
9957 1 -5.04545 -1.67917 0.711154
1165 1 -4.89463 -1.872 1.29511
13815 1 -4.51121 -1.93515 0.734072
27891 1 -4.20638 -1.41498 1.05784
15599 1 -4.51275 -1.36885 0.803787
833 1 -3.94856 -1.68969 0.806866
13937 1 -2.94256 -1.80669 0.672377
15227 1 -3.14711 -1.59572 1.09891
154 1 -2.50129 -1.35295 1.11051
400 1 -1.46532 -1.56405 0.844299
1193 1 -1.61465 -1.74113 1.3075
23314 1 -1.94641 -1.59591 0.944972
28414 1 -0.755612 -1.92888 0.866884
30168 1 -0.996549 -1.58989 0.834306
15292 1 -0.258053 -1.94841 1.20277
2295 1 -8.54819 -1.26487 1.15228
6207 1 -8.53979 -0.683127 1.04337
131 1 -8.25793 -0.924781 1.24777
9288 1 -8.54957 -1.23511 0.655599
15120 1 -7.57812 -0.93132 0.911113
14292 1 -7.38598 -1.23461 0.7107
14819 1 -7.0933 -0.751833 1.27554
13861 1 -7.13957 -1.29596 1.09001
14701 1 -6.77609 -1.01699 0.865559
13590 1 -6.26957 -1.3103 0.933039
15590 1 -6.33026 -0.731721 0.667167
27566 1 -5.85049 -0.909003 0.913361
655 1 -5.66295 -1.13068 1.29839
9353 1 -5.11913 -0.725943 0.947446
378 1 -5.19735 -0.972612 0.799771
818 1 -4.65416 -0.961193 1.05766
14435 1 -4.21592 -0.741029 1.0119
14888 1 -3.83103 -1.11784 1.16652
188 1 -3.43573 -1.12626 0.783995
3549 1 -2.69678 -1.10146 0.80944
1416 1 -3.16518 -1.24118 1.27094
2158 1 -2.01462 -1.16631 0.878233
13231 1 -2.24883 -0.674703 1.1193
539 1 -1.48228 -1.1058 0.940106
6633 1 -1.64886 -0.730274 0.771758
13660 1 -1.07104 -0.759616 0.822092
42392 1 -0.853153 -1.17451 1.02507
41115 1 -0.422247 -1.32769 0.675735
56128 1 -0.238542 -0.870671 1.01394
23400 1 -8.17631 -0.0980581 1.20942
13839 1 -8.20868 -0.62736 0.79907
130 1 -8.51409 -0.0790707 0.935291
27908 1 -7.91031 -0.391319 0.719679
1864 1 -7.58351 -0.200249 1.17676
14821 1 -7.04977 -0.394399 1.13234
14478 1 -6.98176 -0.0035158 0.848124
9318 1 -6.51749 -0.608978 0.915484
14481 1 -6.43311 -0.157833 1.07849
14178 1 -5.94387 -0.240308 0.868858
11488 1 -5.44704 -0.393736 1.04432
78 1 -4.75806 -0.304998 1.16374
13540 1 -4.06971 -0.0988354 0.966546
3667 1 -3.70478 -0.516078 1.24415
7575 1 -3.35896 -0.08679 0.871987
15111 1 -3.74474 -0.498445 0.664825
13561 1 -3.26146 -0.59093 0.901117
13880 1 -2.90443 -0.138947 1.12438
6855 1 -2.86698 -0.510632 1.06925
27845 1 -2.47137 -0.214148 0.904422
15286 1 -1.48296 -0.629458 1.30625
43303 1 -1.97037 -0.0420089 1.08519
42411 1 -1.34163 -0.176561 1.12044
49376 1 -1.7688 -0.238029 0.792441
13885 1 -0.905249 -0.212156 1.20933
398 1 -0.526586 -0.545934 1.10695
403 1 -0.642916 -0.200935 0.941477
36337 1 -2.90701 -8.05813 1.62731
1031 1 -2.06265 -8.16177 1.84662
29307 1 -1.69665 -8.32954 1.72399
29328 1 -0.736413 -8.41768 1.35922
28427 1 -1.17598 -8.35409 1.37112
6626 1 -0.576139 -8.52079 1.85845
29263 1 -0.21805 -8.10855 1.79665
28897 1 -0.222116 -8.62612 1.63139
176 1 -4.30405 -7.49212 1.51289
1427 1 -3.81589 -7.5799 1.60555
910 1 -3.00056 -7.39787 1.47874
28821 1 -3.21947 -7.69227 1.73671
10072 1 -2.77161 -7.73035 1.84656
42042 1 -2.24705 -7.72842 1.7938
35182 1 -2.3585 -7.9913 1.42075
1011 1 -1.58794 -7.89362 1.32483
1080 1 -1.80477 -7.5502 1.52769
107 1 -1.21856 -7.34052 1.39534
28870 1 -1.06145 -7.64661 1.83541
28348 1 -1.11755 -7.99328 1.57803
28410 1 -0.517124 -7.49943 1.94514
29680 1 -0.437556 -7.93378 1.46004
26 1 -5.0483 -7.08756 1.64144
13081 1 -4.67238 -7.1602 1.41967
224 1 -4.41853 -6.94514 1.8259
1534 1 -4.08572 -6.98831 1.7682
643 1 -3.7294 -6.92207 1.6103
890 1 -3.41812 -7.1373 1.37496
262 1 -3.23279 -6.76951 1.72404
2099 1 -2.99925 -6.98567 1.93574
1300 1 -2.71375 -6.68615 1.44648
32092 1 -2.09535 -6.75322 1.53601
1094 1 -2.41214 -7.17576 1.63311
35206 1 -1.40195 -6.94612 1.60389
239 1 -1.79587 -7.23262 1.86955
649 1 -1.13656 -7.16229 1.95435
28864 1 -0.762654 -6.94091 1.83392
28893 1 -0.768237 -7.06418 1.34009
12721 1 -0.508263 -7.33241 1.58698
35232 1 -0.318934 -6.68442 1.38766
89 1 -6.36328 -6.18134 1.38661
13061 1 -5.68885 -6.13203 1.68242
13250 1 -4.7694 -6.32506 1.51937
28485 1 -5.23849 -6.58152 1.7391
55 1 -5.21232 -6.09241 1.36111
1546 1 -4.7355 -6.56822 1.81444
243 1 -4.19729 -6.05231 1.5868
223 1 -4.09582 -6.52098 1.51071
3234 1 -3.48927 -6.35837 1.62323
714 1 -3.6874 -6.06941 1.35701
694 1 -3.06516 -6.10363 1.61795
651 1 -2.29972 -6.06428 1.68298
1327 1 -2.63414 -6.44014 1.5918
1977 1 -2.31065 -6.53616 1.92969
264 1 -1.58539 -6.41538 1.54799
35225 1 -1.93344 -6.16831 1.36876
354 1 -1.04098 -6.15008 1.33915
1069 1 -1.09822 -6.42475 1.87108
674 1 -0.975036 -6.61321 1.49115
35236 1 -0.018777 -6.03269 1.7582
29975 1 -0.531199 -6.47448 1.71478
2062 1 -6.81751 -5.34416 1.60102
9007 1 -6.10653 -5.87786 1.85331
689 1 -6.19181 -5.55909 1.34619
11249 1 -6.64553 -5.93092 1.46958
267 1 -6.49979 -5.74278 1.86174
733 1 -5.90543 -5.33622 1.81398
846 1 -5.44412 -5.51179 1.66343
1719 1 -5.0683 -5.75682 1.6906
14328 1 -4.77416 -5.73946 1.67251
218 1 -4.07912 -5.57718 1.7517
35224 1 -4.44466 -5.49457 1.61066
2083 1 -3.49658 -5.77115 1.83002
7024 1 -3.12516 -5.62975 1.5288
32058 1 -2.85435 -5.43821 1.72498
848 1 -2.50685 -5.77178 1.4584
1962 1 -2.1127 -5.68277 1.85484
28886 1 -1.95696 -5.54002 1.51997
29205 1 -1.51396 -5.85478 1.57852
29284 1 -1.28264 -5.52323 1.54369
1139 1 -0.873081 -5.81628 1.80353
581 1 -0.403646 -5.34022 1.65007
29418 1 -0.508699 -5.83257 1.76557
753 1 -0.132461 -5.53232 1.96134
13778 1 -7.0154 -4.67704 1.4121
8784 1 -6.60174 -4.67188 1.49625
1634 1 -6.43284 -4.89846 1.71422
498 1 -5.88359 -5.04956 1.57243
13623 1 -5.43842 -4.67269 1.54645
385 1 -5.29255 -5.21362 1.5848
1046 1 -4.80228 -5.12601 1.59461
13788 1 -4.04572 -5.09805 1.43004
163 1 -4.41216 -4.9177 1.6887
13133 1 -3.58141 -5.23939 1.93512
13 1 -3.77157 -4.83441 1.79885
563 1 -3.53623 -5.24109 1.34708
1136 1 -2.97221 -4.91307 1.51774
6777 1 -3.20476 -4.91263 1.71025
721 1 -2.53185 -4.97327 1.5877
1741 1 -1.51658 -5.11717 1.67265
2108 1 -1.97367 -4.95339 1.64353
33947 1 -0.993132 -4.76431 1.39264
28936 1 -0.893218 -5.23907 1.94314
30249 1 -0.350754 -4.76213 1.90018
470 1 -0.198372 -4.87725 1.46726
1146 1 -7.36963 -4.31115 1.53843
529 1 -6.85237 -4.59326 1.95176
761 1 -6.70632 -4.00882 1.79175
561 1 -6.62239 -4.15698 1.42976
763 1 -6.12277 -4.2141 1.57817
9508 1 -5.40587 -4.27713 1.48785
13640 1 -5.91999 -4.53212 1.33141
7070 1 -4.97279 -4.11726 1.45514
14147 1 -4.77897 -4.44558 1.79485
939 1 -4.11588 -4.51129 1.4802
1400 1 -4.44452 -4.16145 1.81386
338 1 -3.52346 -4.45204 1.50498
1679 1 -3.35439 -4.15089 1.92264
1162 1 -3.82244 -4.08846 1.80129
1683 1 -2.87217 -4.40415 1.6301
937 1 -2.42671 -4.47145 1.87332
41866 1 -1.68503 -4.27946 1.6892
1129 1 -1.95433 -4.37944 1.40077
6388 1 -1.40065 -4.6635 1.6985
941 1 -0.684125 -4.50077 1.55253
854 1 -1.06215 -4.23531 1.74253
917 1 -0.254233 -4.33313 1.63757
1325 1 -7.51861 -3.47652 1.39507
585 1 -7.77011 -3.80329 1.63126
1167 1 -7.55405 -3.35768 1.81355
492 1 -7.16817 -3.8605 1.57809
373 1 -6.80066 -3.47072 1.86606
7099 1 -6.08577 -3.60705 1.75024
13915 1 -6.45767 -3.60913 1.33003
97 1 -5.49645 -3.72516 1.37023
902 1 -5.69736 -3.94726 1.85951
111 1 -4.98752 -3.65901 1.61186
1228 1 -4.5164 -3.82083 1.4424
1127 1 -4.10479 -3.95868 1.33877
9259 1 -3.95596 -3.55831 1.70482
146 1 -3.57126 -3.59421 1.80399
124 1 -3.16981 -3.58406 1.52065
633 1 -2.9842 -3.98578 1.72425
29824 1 -2.82021 -3.47271 1.91241
42412 1 -2.09609 -3.62503 1.47501
1151 1 -2.24625 -3.97439 1.56213
836 1 -2.5656 -3.85336 1.95704
29167 1 -1.56576 -3.82959 1.80629
825 1 -1.07783 -3.5389 1.43753
29019 1 -0.774007 -3.88268 1.89189
14207 1 -0.480054 -3.79763 1.73037
28399 1 -0.16285 -3.5309 1.48464
30262 1 -0.0120521 -3.90523 1.9546
9054 1 -8.05379 -3.24458 1.41642
1776 1 -8.30598 -2.81121 1.71482
129 1 -7.51679 -2.82096 1.41672
531 1 -7.74333 -2.81852 1.70556
13813 1 -7.06643 -3.10219 1.66304
762 1 -7.03915 -2.79526 1.91368
15092 1 -6.05197 -2.66789 1.5127
28053 1 -6.50902 -2.85621 1.9578
371 1 -6.44416 -2.98307 1.58122
874 1 -5.57753 -3.22425 1.46877
192 1 -5.91645 -3.20231 1.72082
6889 1 -5.12153 -2.96703 1.82714
440 1 -4.94865 -3.27764 1.70523
13628 1 -4.00564 -3.18179 1.36786
1600 1 -4.5033 -2.82345 1.43101
635 1 -4.44118 -3.32202 1.61202
13826 1 -3.38367 -2.74551 1.54165
369 1 -3.9492 -2.80489 1.68034
687 1 -3.0921 -3.28861 1.31312
21121 1 -3.32136 -3.0901 1.82833
1242 1 -2.86106 -2.97794 1.81278
13335 1 -2.22938 -2.93881 1.47879
28069 1 -2.44285 -3.31735 1.47545
27864 1 -1.44318 -2.97052 1.45903
1241 1 -1.98965 -2.87691 1.82182
55494 1 -1.75452 -3.32375 1.75818
56142 1 -0.971011 -3.31545 1.67358
14862 1 -0.792391 -2.67925 1.70656
787 1 -0.604624 -3.16728 1.72601
13645 1 -8.54664 -2.21731 1.91246
573 1 -8.03163 -2.23792 1.54406
19318 1 -7.57687 -2.23628 1.85904
376 1 -6.67639 -2.50292 1.41042
1829 1 -7.24401 -2.4002 1.35245
15472 1 -6.59382 -2.26842 1.5738
1007 1 -6.05409 -2.51723 1.75847
13776 1 -5.62504 -2.20794 1.85063
14806 1 -5.98462 -2.02109 1.67467
14204 1 -5.36907 -2.64463 1.70142
988 1 -4.94585 -2.28804 1.86302
5980 1 -4.98267 -2.35031 1.44564
1659 1 -4.35831 -2.34601 1.4598
424 1 -4.06763 -2.16667 1.78141
13934 1 -3.68925 -2.31499 1.5361
14187 1 -3.3185 -2.53309 1.91817
715 1 -3.22499 -2.02464 1.56784
420 1 -2.72229 -2.58561 1.81527
768 1 -3.09313 -2.32416 1.33429
9105 1 -2.32426 -2.28507 1.40101
2422 1 -2.48845 -2.12072 1.88135
7039 1 -1.77581 -2.22698 1.4791
1903 1 -1.87412 -2.36689 1.72057
3385 1 -1.32564 -2.62213 1.53146
1191 1 -1.12367 -2.171 1.59701
29804 1 -0.333409 -2.05116 1.95444
401 1 -0.434923 -2.50825 1.59368
820 1 -0.0690136 -2.32593 1.34737
379 1 -8.31479 -1.6609 1.82654
814 1 -7.67789 -1.81147 1.55533
474 1 -6.81561 -1.3654 1.50139
282 1 -7.04467 -1.85022 1.95041
547 1 -7.1589 -1.91089 1.36511
15905 1 -7.23463 -1.59809 1.83698
1225 1 -6.43492 -1.85258 1.7529
712 1 -5.48523 -1.95489 1.58722
1217 1 -5.45609 -1.40463 1.75203
5728 1 -5.92907 -1.40018 1.44829
81 1 -4.30693 -1.52524 1.50897
791 1 -4.55929 -1.90599 1.70672
13641 1 -3.5949 -1.63007 1.31154
1256 1 -3.92167 -1.74605 1.53334
590 1 -3.83895 -1.34788 1.92206
6 1 -3.38056 -1.44031 1.79116
847 1 -2.76025 -1.60717 1.72738
27234 1 -2.78435 -1.88727 1.31854
14364 1 -2.24572 -1.39465 1.40164
1358 1 -2.1308 -1.77052 1.54197
472 1 -1.42938 -1.78925 1.86302
6392 1 -0.710416 -1.94101 1.41532
27599 1 -1.22608 -1.46902 1.51034
29425 1 -0.847595 -1.46339 1.53167
6173 1 -0.395081 -1.45927 1.30952
2022 1 -0.664809 -1.94784 1.87863
1141 1 -0.157356 -1.53613 1.70641
14632 1 -8.2618 -0.902494 1.77525
13805 1 -7.60754 -0.792502 1.31288
415 1 -7.92092 -1.23205 1.56942
1604 1 -7.45853 -1.25995 1.37335
14512 1 -7.48388 -0.963769 1.90742
27907 1 -7.90666 -0.882402 1.93568
12928 1 -6.94512 -1.00138 1.70418
14803 1 -6.34191 -0.922658 1.93228
179 1 -6.43751 -0.834362 1.31559
170 1 -6.0095 -1.03542 1.84554
14230 1 -6.08003 -0.673522 1.38819
434 1 -5.63243 -0.948223 1.94436
42381 1 -4.94131 -1.29695 1.62234
1592 1 -4.8265 -0.803566 1.4185
177 1 -5.20621 -0.850061 1.56189
14688 1 -4.24413 -1.05115 1.54777
27471 1 -3.65843 -1.04002 1.58894
35322 1 -2.80637 -1.16117 1.59077
14470 1 -2.80192 -0.792333 1.34723
18688 1 -2.29236 -0.873213 1.79236
28445 1 -1.55834 -1.15406 1.53718
2060 1 -1.87361 -0.96682 1.51742
1407 1 -1.02366 -0.926551 1.43171
56177 1 -0.394365 -1.06182 1.9291
320 1 -0.369708 -0.985199 1.41007
14679 1 -8.30971 -0.194112 1.82661
20637 1 -8.0302 -0.541577 1.41421
1083 1 -8.58011 -0.492734 1.39961
7802 1 -7.48034 -0.350007 1.67264
14171 1 -7.91152 -0.187045 1.83701
527 1 -6.73872 -0.370033 1.52409
15121 1 -7.16427 -0.518761 1.88065
14264 1 -6.29097 -0.124268 1.74234
14996 1 -5.48777 -0.558638 1.47081
5363 1 -5.92174 -0.420393 1.51247
15240 1 -4.87313 -0.188104 1.62577
23540 1 -5.02321 -0.0834509 1.91171
23643 1 -4.45999 -0.156763 1.66414
592 1 -4.61798 -0.638261 1.77472
14692 1 -4.21993 -0.508122 1.48785
7082 1 -3.80193 -0.150278 1.36879
417 1 -3.76059 -0.0716646 1.80759
15254 1 -3.34207 -0.388109 1.92358
27880 1 -3.93591 -0.657178 1.87771
5740 1 -3.31923 -0.582068 1.34697
13400 1 -2.85034 -0.509258 1.78043
15082 1 -2.37563 -0.313997 1.51077
796 1 -2.61328 -0.161886 1.66824
625 1 -1.39119 -0.175686 1.84387
18129 1 -1.88814 -0.434019 1.46029
6317 1 -1.95425 -0.0956763 1.91743
14203 1 -1.33011 -0.462337 1.82557
42704 1 -0.902696 -0.596355 1.54208
469 1 -0.0731223 -0.590595 1.51172
51903 1 -0.44353 -0.407444 1.6633