units real
dimension 3
boundary p p p
neighbor 0.3 bin
neigh_modify every 1 check yes

atom_style full
bond_style harmonic
angle_style cosine/squared
special_bonds lj/coul 0 1 1


region     box      block 0 87 0 87 0 87
create_box 4 box bond/types 1 angle/types 1 	extra/special/per/atom 3 	extra/bond/per/atom 2 	extra/angle/per/atom 2
Created orthogonal box = (0 0 0) to (87 87 87)
  2 by 2 by 2 MPI processor grid


molecule 1 sds.txt
Read molecule template 1:
  1 molecules
  0 fragments
  4 atoms with max type 2
  3 bonds with max type 1
  2 angles with max type 1
  0 dihedrals with max type 0
  0 impropers with max type 0
# 1 - Qa (SDS-H)
# 2 - C1
# 3 - Qd (Na)
# 4 - W

create_atoms     0 random 1000 123458 box mol 1 128
Created 4000 atoms
  using lattice units in orthogonal box = (0 0 0) to (87 87 87)
  create_atoms CPU = 0.003 seconds
create_atoms     3 random 1000 134478 box
Created 1000 atoms
  using lattice units in orthogonal box = (0 0 0) to (87 87 87)
  create_atoms CPU = 0.000 seconds
create_atoms     4 random 333 13348 box
Created 333 atoms
  using lattice units in orthogonal box = (0 0 0) to (87 87 87)
  create_atoms CPU = 0.000 seconds

mass 1 96
mass 2 56
mass 3 23
mass 4 72

pair_style hybrid/overlay lj/gromacs 9 12 coul/long 12

kspace_style pppm 1.0e-5
kspace_modify order 4

dielectric 80

set type 1 charge  -1
Setting atom values ...
  1000 settings made for charge
set type 3 charge  1
Setting atom values ...
  1000 settings made for charge
pair_coeff 1*3 1*3 coul/long

## In kJ/mol and Angstrom
# pair_coeff 1 1   5.0 4.7
# pair_coeff 1 2   2.0 6.2
# pair_coeff 1 3   5.6 4.7
# pair_coeff 1 4   5.6 4.7
# pair_coeff 2 2   3.5 4.7
# pair_coeff 2 3   2.0 6.2
# pair_coeff 2 4   2.0 4.7
# pair_coeff 3 3   5.0 4.7
# pair_coeff 3 4   5.6 4.7
# pair_coeff 4 4   5.0 4.7
# bond_coeff 1 1250 4.7
# angle_coeff 1 25 180

# In kcal/mol and Angstrom
pair_coeff 1 1 lj/gromacs  1.19 4.7
pair_coeff 1 2 lj/gromacs  0.48 6.2
pair_coeff 1 3 lj/gromacs  1.33 4.7
pair_coeff 1 4 lj/gromacs  1.33 4.7
pair_coeff 2 2 lj/gromacs  0.84 4.7
pair_coeff 2 3 lj/gromacs  0.48 6.2
pair_coeff 2 4 lj/gromacs  0.48 4.7
pair_coeff 3 3 lj/gromacs  1.19 4.7
pair_coeff 3 4 lj/gromacs  1.33 4.7
pair_coeff 4 4 lj/gromacs  1.19 4.7

bond_coeff 1 2.98 4.7
angle_coeff 1 5.97 180


write_data initial.data
System init for write_data ...
PPPM initialization ...
  using 12-bit tables for long-range coulomb (src/kspace.cpp:342)
  G vector (1/distance) = 0.16102757
  grid = 18 18 18
  stencil order = 4
  estimated absolute RMS force accuracy = 0.0027332937
  estimated relative force accuracy = 8.2312327e-06
  using double precision KISS FFT
  3d grid and FFT values/proc = 2744 972
Generated 0 of 6 mixed pair_coeff terms from geometric mixing rule
Neighbor list info ...
  update every 1 steps, delay 10 steps, check yes
  max neighbors/atom: 2000, page size: 100000
  master list distance cutoff = 12.3
  ghost atom cutoff = 12.3
  binsize = 6.15, bins = 15 15 15
  2 neighbor lists, perpetual/occasional/extra = 2 0 0
  (1) pair lj/gromacs, perpetual
      attributes: half, newton on
      pair build: half/bin/newton
      stencil: half/bin/3d
      bin: standard
  (2) pair coul/long, perpetual, skip from (1)
      attributes: half, newton on
      pair build: skip
      stencil: none
      bin: none
dump        mydump  all atom 5000 sds.lammpstrj


velocity all create 300 666 dist gaussian
velocity all zero linear

min_style cg
minimize 0 0 10000 100000
WARNING: Using 'neigh_modify every 1 delay 0 check yes' setting during minimization (src/min.cpp:187)
PPPM initialization ...
  using 12-bit tables for long-range coulomb (src/kspace.cpp:342)
  G vector (1/distance) = 0.16102757
  grid = 18 18 18
  stencil order = 4
  estimated absolute RMS force accuracy = 0.0027332937
  estimated relative force accuracy = 8.2312327e-06
  using double precision KISS FFT
  3d grid and FFT values/proc = 2744 972
Generated 0 of 6 mixed pair_coeff terms from geometric mixing rule
Per MPI rank memory allocation (min/avg/max) = 10.39 | 10.41 | 10.44 Mbytes
   Step          Temp          E_pair         E_mol          TotEng         Press     
         0   300            3.2690092e+17  1038.2435      3.2690092e+17  1.3615779e+17
      5121   300           -26495.181      1151.6274     -20575.45       543.9463     
Loop time of 11.5731 on 8 procs for 5121 steps with 5333 atoms

99.9% CPU use with 8 MPI tasks x 1 OpenMP threads

Minimization stats:
  Stopping criterion = linesearch alpha is zero
  Energy initial, next-to-last, final = 
    3.26900922573674e+17  -25343.5537756229  -25343.5537756229
  Force two-norm initial, final = 1.5397813e+19 0.61865886
  Force max component initial, final = 7.2167775e+18 0.20201112
  Final line search alpha, max atom move = 3.0561427e-08 6.1737481e-09
  Iterations, force evaluations = 5121 8128

MPI task timing breakdown:
Section |  min time  |  avg time  |  max time  |%varavg| %total
---------------------------------------------------------------
Pair    | 5.7691     | 6.0797     | 6.2488     |   6.1 | 52.53
Bond    | 0.10492    | 0.11199    | 0.11895    |   1.5 |  0.97
Kspace  | 2.6836     | 2.8585     | 3.1761     |   9.1 | 24.70
Neigh   | 1.8005     | 1.8037     | 1.8069     |   0.2 | 15.59
Comm    | 0.50413    | 0.50635    | 0.50944    |   0.3 |  4.38
Output  | 0.00041992 | 0.00050984 | 0.0006021  |   0.0 |  0.00
Modify  | 0          | 0          | 0          |   0.0 |  0.00
Other   |            | 0.2124     |            |       |  1.84

Nlocal:        666.625 ave         679 max         658 min
Histogram: 3 0 1 1 0 0 1 0 0 2
Nghost:        1889.38 ave        1902 max        1876 min
Histogram: 1 0 2 0 1 0 2 0 0 2
Neighs:          20560 ave       21028 max       20031 min
Histogram: 2 0 1 0 0 2 0 0 0 3

Total # of neighbors = 164480
Ave neighs/atom = 30.841928
Ave special neighs/atom = 2.2501406
Neighbor list builds = 2210
Dangerous builds = 13

thermo              100
timestep 20

fix mom all momentum 1000 linear 1 1 1

fix fxnpt1 all npt temp 300 300 $(100*dt) iso 1 1 $(1000*dt) mtk yes
fix fxnpt1 all npt temp 300 300 2000 iso 1 1 $(1000*dt) mtk yes
fix fxnpt1 all npt temp 300 300 2000 iso 1 1 20000 mtk yes
run 1000000
PPPM initialization ...
  using 12-bit tables for long-range coulomb (src/kspace.cpp:342)
  G vector (1/distance) = 0.16102757
  grid = 18 18 18
  stencil order = 4
  estimated absolute RMS force accuracy = 0.0027332937
  estimated relative force accuracy = 8.2312327e-06
  using double precision KISS FFT
  3d grid and FFT values/proc = 2744 972
Generated 0 of 6 mixed pair_coeff terms from geometric mixing rule
Per MPI rank memory allocation (min/avg/max) = 9.272 | 9.293 | 9.316 Mbytes
   Step          Temp          E_pair         E_mol          TotEng         Press          Volume    
      5121   300           -26495.181      1151.6274     -20575.45       543.9463       658503       
      5200   146.64306     -24526.325      1628.974      -20566.654      643.08752      677366       
      5300   154.20454     -24133.496      1491.5371     -20191.082      172.05543      699714.3     
      5400   169.69349     -23752.502      1443.1875     -19612.26       17.123772      711980.14    
      5500   188.36375     -23442.983      1511.0372     -18938.153      68.023111      717719.44    
      5600   214.08738     -23166.236      1562.2807     -18201.319      86.173264      722876.04    
      5700   230.99889     -22748.697      1647.0178     -17430.257      119.56035      730305.34    
      5800   254.29319     -22424.632      1724.7464     -16658.231      116.7062       739136.7     
      5900   277.04769     -22027.261      1696.3136     -15927.64       92.384383      748732.54    
      6000   291.44972     -21656.726      1740.7371     -15283.781      120.32973      757929.36    
      6100   300.29062     -21374.279      1829.2543     -14772.302      37.349336      766600.61    
      6200   308.94328     -21184.656      1808.1358     -14466.275      17.544325      773390.93    
      6300   307.53568     -21107.418      1775.1078     -14444.437     -34.943584      777954.85    
      6400   303.01161     -21211.085      1703.6326     -14691.483     -68.016122      778854.58    
      6500   297.29167     -21456.406      1757.727      -14973.621     -81.369402      775447.54    
      6600   300.28024     -21610.956      1674.4731     -15163.925     -20.084136      769781.89    
      6700   296.9705      -21670.307      1674.9339     -15275.419     -2.5423505      764494.99    
      6800   301.629       -21850.436      1719.6672     -15336.774     -17.91111       760578.13    
      6900   303.27875     -22016.8        1706.7267     -15489.858     -25.508967      757342.52    
      7000   298.54051     -22165.904      1735.1418     -15685.856     -30.013946      753948.91    
      7100   300.92361     -22326.256      1680.3375     -15863.135     -34.979786      750427.36    
      7200   300.32198     -22409.225      1657.2396     -15978.765     -22.843607      747299.07    
      7300   296.5341      -22497.394      1726.8772     -16057.499     -20.149783      744397.03    
      7400   298.89017     -22546.191      1689.5046     -16106.222     -8.3981706      741839.62    
      7500   302.97328     -22670.961      1696.6055     -16158.996     -12.746787      739630.03    
      7600   301.37789     -22654.061      1656.5813     -16207.476     -13.015423      738327.63    
      7700   301.26355     -22756.766      1669.8327     -16298.747     -23.658852      737610.05    
      7800   304.54549     -22924.235      1702.0154     -16381.871     -69.303302      735972.17    
      7900   298.48131     -22921.62       1677.4883     -16500.166     -14.622771      734316.42    
      8000   299.36159     -22967.98       1594.1626     -16615.861     -1.9304066      732374.94    
      8100   294.9926      -23002.784      1612.0031     -16702.263      10.572454      730092.71    
      8200   299.43993     -23131.207      1618.3538     -16753.651     -24.781308      728280.78    
      8300   302.00166     -23191.611      1626.9953     -16764.698     -17.400059      726927.95    
      8400   304.81884     -23241.651      1602.2929     -16794.665      3.9670707      725806.13    
      8500   299.09402     -23222.07       1577.9722     -16890.394      6.7442385      724744.17    
      8600   299.71438     -23314.731      1552.6972     -16998.469      1.6323667      723714.46    
      8700   296.77041     -23355.681      1584.9005     -17054.007      7.5027123      723009.03    
      8800   296.39458     -23383.604      1640.6755     -17032.128      21.30299       722099.22    
      8900   306.06947     -23442.597      1586.9943     -16991.033     -23.638322      721990.01    
      9000   297.62056     -23321.052      1616.141      -16974.625      3.4195803      722081       
      9100   300.08109     -23415.472      1644.8982     -17001.181     -40.120719      722327.75    
      9200   300.77135     -23397.43       1580.8716     -17036.195     -19.327695      721520.93    
      9300   299.80043     -23457.184      1582.5218     -17109.73      -19.139981      719575.74    
      9400   298.1615      -23522.099      1574.0823     -17209.133      18.154305      717130.98    
      9500   301.10797     -23624.361      1539.0136     -17299.634      27.727655      714967.21    
      9600   296.61072     -23718.858      1624.7316     -17379.891     -21.924233      714463.29    
      9700   296.04707     -23669.008      1589.3312     -17374.399      7.08092        714040.81    
      9800   302.06131     -23699.439      1589.5311     -17309.043      12.324572      712969.72    
      9900   302.57943     -23671.908      1602.1016     -17260.706      13.348197      713777.15    
     10000   298.39562     -23596.141      1572.6368     -17280.9       -17.67468       716325.93    
     10100   299.50048     -23621.769      1565.5956     -17296.009     -63.97038       717427.25    
     10200   303.12728     -23615.28       1529.9454     -17267.526      36.305575      715134.25    
     10300   303.69183     -23752.178      1596.8461     -17328.551      60.535704      712549.55    
     10400   299.94903     -23834.899      1533.8607     -17533.744     -25.266394      711692.06    
     10500   292.65292     -23899.643      1560.7715     -17687.54      -37.779356      709422.03    
     10600   296.59438     -24021.195      1606.3156     -17700.904      7.7552407      705553.79    
     10700   301.82603     -24048.586      1597.706      -17653.754      70.031469      703362.65    
     10800   302.08302     -24055.458      1592.0494     -17662.199      32.081084      705345.61    
     10900   299.98507     -23977.338      1552.2519     -17657.219     -33.602441      708144.36    
     11000   299.35424     -23964.391      1588.6622     -17617.889     -22.628453      708715.19    
     11100   301.09949     -23921.289      1577.6871     -17558.024      34.167083      707392.5     
     11200   304.5558      -23985.984      1593.4166     -17552.056      4.0483607      706908.48    
     11300   298.042       -23920.091      1553.9816     -17629.125      8.5373085      707296.4     
     11400   296.19574     -23976.873      1568.3943     -17700.838      1.8766113      707032.27    
     11500   299.88752     -23998.267      1524.1635     -17707.788     -1.0633026      706560.84    
     11600   303.39648     -24021.497      1534.1606     -17665.25       16.737659      706549.12    
     11700   304.35648     -24037.062      1572.3435     -17627.374     -52.642838      708248.01    
     11800   302.65463     -23930.26       1538.9224     -17581.042     -4.3220846      709285.32    
     11900   297.37992     -23849.025      1569.5383     -17553.026      22.065785      708903.43    
     12000   301.8579      -23937.097      1570.6374     -17568.827      27.341894      707655.11    
     12100   299.25604     -24045.612      1617.4603     -17671.872     -35.779938      707205.3     
     12200   298.07546     -24024.881      1515.1424     -17772.223      2.5513424      706367.44    
     12300   297.7967      -24107.296      1584.8312     -17789.38       4.445831       705444.08    
     12400   297.50847     -24020.291      1578.5296     -17713.258      52.498585      704427.89    
     12500   305.93298     -24052.498      1559.6437     -17630.454      8.4586125      704742.05    
     12600   300.28356     -23995.684      1574.8485     -17648.225      0.067696472    705968       
     12700   298.75153     -24032.915      1566.3781     -17718.276     -13.660624      705931.21    
     12800   300.73331     -24043.412      1535.8583     -17727.795      12.71728       705129.98    
     12900   295.76999     -24001.541      1606.8644     -17693.803      49.924868      704882.95    
     13000   299.87816     -23954.429      1548.4128     -17639.849      38.47651       706401.86    
     13100   301.21596     -23973.97       1573.4281     -17613.112     -38.351432      708186.76    
     13200   300.30603     -23930.494      1535.4182     -17622.108     -9.9143206      707729.99    
     13300   301.96075     -24043.253      1560.1419     -17683.844      10.516397      705551.21    
     13400   304.46496     -24135.091      1531.4333     -17764.589     -18.717125      704054.81    
     13500   294.18709     -24006.608      1538.4078     -17792.484      75.221713      703300.43    
     13600   297.33724     -24066.761      1585.9938     -17754.985      16.50906       704203.26    
     13700   301.3067      -24061.567      1545.1473     -17727.548     -36.118389      705402.6     
     13800   301.66793     -24088.478      1567.4801     -17726.384     -35.418797      705789.83    
     13900   298.13027     -24027.232      1560.8089     -17728.036      26.471385      706320.66    
     14000   298.31036     -24040.427      1563.1238     -17736.054     -2.2340675      706663.66    
     14100   300.83056     -24109.62       1604.1166     -17724.199     -78.482899      707119.28    
     14200   300.63905     -24086.145      1583.9985     -17723.886     -14.675616      706127.21    
     14300   300.44281     -24071.203      1529.5604     -17766.501      51.27703       704726.87    
     14400   302.01093     -24203.331      1578.2233     -17825.042     -64.561399      704388.97    
     14500   297.63809     -24159.692      1560.8373     -17868.291     -14.636693      703480.49    
     14600   298.25597     -24142.356      1567.3738     -17834.597      47.723676      702429.61    
     14700   302.94326     -24209.003      1609.0984     -17785.021     -21.611354      702800.63    
     14800   302.56731     -24151.609      1555.8266     -17786.875      25.401555      704021.37    
     14900   301.33376     -24175.549      1541.8662     -17844.381     -34.520993      705253.84    
     15000   299.97675     -24178.382      1517.3725     -17893.275     -46.147905      704476.78    
     15100   296.94313     -24211.372      1589.3855     -17902.467     -6.8295482      701776.61    
     15200   295.16856     -24180.112      1573.017      -17915.781      78.411008      699667.68    
     15300   296.07911     -24251.241      1560.6194     -17984.835      27.930391      700412.94    
     15400   295.90281     -24277.679      1539.451      -18035.243     -57.459282      702426.76    
     15500   292.8613      -24211.103      1628.5983     -17927.861      13.706409      702504.79    
     15600   296.60616     -24178.925      1603.6772     -17861.085      38.295236      702373.32    
     15700   302.03061     -24179.812      1532.8812     -17846.553      8.5900458      703797.74    
     15800   299.69275     -24159.152      1575.3228     -17820.609     -2.0391216      704886.99    
     15900   305.71934     -24159.209      1552.5396     -17747.664     -7.6181065      705075.45    
     16000   303.71106     -24118.499      1594.1439     -17697.269      6.3884719      705521.16    
     16100   299.16802     -24133.712      1567.1511     -17811.681     -16.137464      705406.94    
     16200   300.4945      -24194.445      1501.6945     -17916.787      17.126266      702500.1     
     16300   303.13628     -24331.677      1557.0021     -17956.724      56.416534      698191.47    
     16400   300.55792     -24383.257      1542.6294     -18063.657      52.895004      696370.55    
     16500   293.95288     -24375.642      1596.4573     -18107.191     -21.473021      698275.73    
     16600   300.30478     -24370.685      1534.2121     -18063.525     -61.81773       700257.82    
     16700   299.52722     -24286.804      1535.6273     -17990.587      16.106043      700956.46    
     16800   299.97971     -24249.607      1516.5913     -17965.234     -8.5961809      701259.01    
     16900   300.19238     -24288.318      1565.3837     -17951.773     -37.189404      700690.41    
     17000   300.01075     -24230.544      1523.9342     -17938.335      62.707955      699636.72    
     17100   295.58713     -24247.073      1589.1467     -17959.959      70.61749       699755.91    
     17200   297.83649     -24306.378      1559.7015     -18012.959     -39.912488      701169.49    
     17300   297.60616     -24300.668      1547.6918     -18022.92      -5.820066       701186.83    
     17400   301.42575     -24301.54       1573.5948     -17937.181      43.944567      700696.34    
     17500   303.45156     -24273.14       1569.508      -17880.67      -19.287189      701557.08    
     17600   302.95319     -24217.629      1546.6315     -17855.956      2.4363888      702761.28    
     17700   307.90062     -24285.873      1584.818      -17807.381     -51.987462      703087.11    
     17800   304.73697     -24201.122      1614.8874     -17742.842      3.2812746      702665.54    
     17900   304.62237     -24228.059      1590.622      -17795.867     -11.403635      702873       
     18000   296.27434     -24222.027      1593.7848     -17919.353     -11.638715      702829.01    
     18100   295.78765     -24209.945      1545.9686     -17962.822      6.7784626      701518.65    
     18200   297.48153     -24251.772      1589.0699     -17934.626      11.793316      700287.17    
     18300   301.86813     -24178.925      1537.7967     -17843.333      8.3674136      701527.02    
     18400   300.90076     -24153.686      1545.2291     -17826.037     -16.968348      703982.76    
     18500   297.74004     -24146.738      1583.0745     -17831.479     -28.323911      705083.86    
     18600   301.38655     -24173.853      1563.2411     -17820.471     -6.6274163      704086.28    
     18700   303.55853     -24200.028      1577.956      -17797.41       29.650598      702865.21    
     18800   299.7313      -24186.045      1577.2335     -17844.979      38.402396      701903.22    
     18900   300.18333     -24267.657      1529.9034     -17966.736     -15.680119      701234.64    
     19000   295.99868     -24325.734      1607.2423     -18013.984      10.619642      701255.55    
     19100   298.40475     -24272.456      1582.7898     -17946.917      4.0972553      702413.34    
     19200   302.66182     -24203.303      1553.8734     -17839.02      -47.872657      703813.98    
     19300   299.6694      -24203.37       1607.5477     -17832.973     -21.676433      703309.86    
     19400   301.68917     -24278.253      1571.2479     -17912.054     -3.001099       700624.2     
     19500   298.59478     -24346.104      1580.6867     -18019.647      38.81411       699081.95    
     19600   298.68662     -24354.771      1559.6726     -18047.869     -0.86883602     700032.27    
     19700   296.54878     -24257.602      1540.4442     -18003.906      14.066055      701404.25    
     19800   304.79118     -24319.181      1552.8559     -17922.072     -4.7138133      701083.37    
     19900   300.10788     -24219.55       1510.3471     -17939.384      45.07727       700301.75    
     20000   299.8639      -24303.336      1556.4034     -17980.992      14.849221      699118.6     
     20100   299.09545     -24347.011      1521.5564     -18071.727      25.697257      698258.73    
     20200   299.3202      -24414.584      1488.9465     -18168.338     -27.594789      698312.77    
     20300   296.96932     -24410.87       1523.9388     -18166.997      3.502975       697007.43    
     20400   303.35397     -24503.497      1585.9636     -18096.123      25.436582      694892.73    
     20500   305.51245     -24487.279      1525.7399     -18105.823      49.336259      694543.53    
     20600   297.30173     -24417.445      1554.3681     -18137.858      0.85732845     696585.58    
     20700   300.03578     -24417.462      1504.8007     -18143.989     -45.177985      698878.76    
     20800   299.25355     -24389.975      1557.2846     -18076.451     -12.463174      698608.17    
     20900   304.41574     -24447.383      1593.6117     -18015.486     -18.164719      696466.48    
     21000   303.18794     -24466.109      1551.9874     -18095.35      -10.119527      694373.2     
     21100   293.88579     -24405.157      1553.8897     -18180.341      78.094875      694467.94    
     21200   299.73753     -24490.741      1515.6725     -18211.136      5.8950798      696280.22    
     21300   300.15932     -24444.79       1518.6293     -18155.525     -56.403817      697808.76    
     21400   300.98361     -24366.226      1496.1577     -18086.332     -12.985617      696668.91    
     21500   300.76705     -24410.398      1540.1143     -18089.989      43.196569      695087.87    
     21600   302.3124      -24456.494      1518.3014     -18133.337      14.769166      694960.36    
     21700   299.71381     -24516.2        1549.8455     -18202.799     -11.570923      694879.9     
     21800   294.61626     -24502.043      1586.6857     -18232.821      34.337571      694898.79    
     21900   300.01453     -24457.042      1529.9074     -18158.8        24.721165      695864.96    
     22000   304.34354     -24435.518      1561.7158     -18036.664     -39.796253      698183.64    
     22100   301.8383      -24366.059      1553.1087     -18015.63      -93.350063      700545.34    
     22200   302.49168     -24405.19       1559.12       -18038.364     -51.09476       700012.52    
     22300   299.45175     -24432.829      1533.0503     -18140.389     -5.5814801      696174.3     
     22400   306.71542     -24625.37       1498.0072     -18252.526      53.393912      691818.68    
     22500   298.32071     -24550.368      1513.0989     -18295.855      70.790452      691605.3     
     22600   300.73247     -24618.516      1546.1383     -18292.632     -46.498984      694635.97    
     22700   298.30253     -24509.252      1550.5573     -18217.57      -50.37947       697382.15    
     22800   298.78067     -24442.891      1528.131      -18166.036     -40.53039       697347.25    
     22900   300.44915     -24477.977      1557.7213     -18145.014     -5.5238777      695341.53    
     23000   300.54885     -24524.818      1606.466      -18141.525      28.397979      694379.98    
     23100   299.45418     -24492.109      1511.2142     -18221.466     -2.6510827      695072.72    
     23200   295.80822     -24571.901      1549.8189     -18320.601     -17.97684       695048.47    
     23300   296.58003     -24569.73       1547.7779     -18308.205      2.4869605      693851.5     
     23400   302.488       -24544.985      1584.8973     -18152.44       37.695123      693852.44    
     23500   299.9267      -24456.23       1543.2045     -18146.087      35.918945      695726.02    
     23600   297.17898     -24420.813      1575.8718     -18121.674     -24.915074      697180.82    
     23700   298.6162      -24381.836      1582.6031     -18053.123     -12.774174      696524.38    
     23800   301.86837     -24350.366      1566.3742     -17986.192      79.158879      695306.02    
     23900   303.09336     -24428.253      1555.2764     -18055.708      15.567268      695871.95    
     24000   299.30065     -24462.934      1507.1301     -18198.816     -65.321251      696852.73    
     24100   299.01603     -24489.039      1550.6005     -18185.974      4.1590265      695468.55    
     24200   302.84587     -24470.909      1524.6386     -18132.936      43.142875      693360.54    
     24300   302.51259     -24472.766      1504.8889     -18159.839      48.034792      692854.77    
     24400   298.52205     -24566.434      1551.5227     -18270.298     -18.260919      693882.75    
     24500   293.21081     -24520.607      1519.6845     -18340.724      7.6536589      694216.8     
     24600   296.79014     -24526.507      1560.4623     -18248.958     -3.8979435      693684.6     
     24700   301.36043     -24536.188      1540.4109     -18206.051     -9.9410037      692637.2     
     24800   297.5485      -24544.955      1591.2821     -18224.533     -2.8311346      691813.61    
     24900   299.51789     -24583.031      1537.8523     -18284.738      37.638114      691306.49    
     25000   299.41956     -24639.805      1541.3439     -18339.583      6.5535337      691563.21    
     25100   292.83589     -24503.315      1529.9914     -18319.084      39.30254       691393.32    
     25200   307.36144     -24619.929      1532.8022     -18202.023     -38.094194      691704.55    
     25300   299.2604      -24482.604      1515.8832     -18210.372      34.466086      693468.67    
     25400   294.69565     -24508.22       1541.087      -18283.335     -26.15742       694823.66    
     25500   294.63152     -24545.353      1599.2986     -18263.275     -25.676193      693937.17    
     25600   304.90766     -24543.509      1579.7625     -18117.642      30.170016      692769.12    
     25700   299.85376     -24480.586      1568.4871     -18146.32       22.474829      694536.01    
     25800   295.44131     -24473.485      1543.6521     -18234.183     -14.544903      697433.63    
     25900   296.78755     -24520.154      1550.7872     -18252.321     -84.513501      697589.01    
     26000   302.65043     -24538.773      1596.8335     -18131.71      -9.0248791      694655.42    
     26100   301.71323     -24483.54       1574.3412     -18113.865      80.042446      692327.9     
     26200   302.22918     -24476.844      1493.3745     -18179.935      48.895763      693759.86    
     26300   296.58879     -24413.912      1480.5742     -18219.451     -60.304071      696417.59    
     26400   296.76568     -24404.727      1542.0641     -18145.965      10.508107      695592.77    
     26500   300.91569     -24446.996      1594.3973     -18069.942      20.046107      694228.52    
     26600   299.3087      -24450.099      1576.8839     -18116.099      46.30171       694932.99    
     26700   300.56451     -24517.532      1555.9372     -18184.519     -50.456596      696285.48    
     26800   300.96087     -24548.932      1533.8899     -18231.666     -49.985756      695296.9     
     26900   304.55159     -24600.177      1555.9782     -18203.754      3.2378948      692528.75    
     27000   304.16223     -24602.546      1625.2718     -18143.017      80.936763      690569.88    
     27100   303.3889      -24641.48       1601.4407     -18218.073      18.008794      692169.68    
     27200   295.0782      -24547.417      1545.1539     -18312.385     -36.473755      694705       
     27300   303.44961     -24553.931      1459.6269     -18271.373     -60.669357      695338.74    
     27400   299.94518     -24497.816      1534.1956     -18196.388     -4.9542265      694212.65    
     27500   299.89219     -24547.866      1582.4549     -18199.02       17.085353      693103.5     
     27600   301.289       -24551.194      1521.1195     -18241.484      13.429309      692741.58    
     27700   297.12456     -24577.09       1513.7799     -18340.907      16.444933      692880.83    
     27800   297.38894     -24626.585      1512.377      -18387.603      1.1318886      693057.83    
     27900   302.61874     -24617.085      1557.8911     -18249.469     -3.7664141      692886.9     
     28000   299.20947     -24529.928      1580.9106     -18193.478      15.390768      693548.14    
     28100   297.7991      -24541.783      1570.674      -18237.985     -1.0237551      695545.78    
     28200   295.55822     -24562.677      1585.6867     -18279.483     -79.978851      696443.89    
     28300   296.81779     -24468.177      1539.3498     -18211.301      72.72286       693462.14    
     28400   304.38972     -24583.44       1604.0252     -18141.542      67.362705      691764.83    
     28500   300.73012     -24542.512      1523.7357     -18239.068      6.2174203      694594.99    
     28600   294.64825     -24492.822      1516.5582     -18293.22      -94.486425      697644.56    
     28700   299.13093     -24511.295      1518.7757     -18238.228     -20.845714      695966.83    
     28800   304.39372     -24606.017      1566.6056     -18201.475      16.02687       693200.05    
     28900   303.87404     -24597.931      1529.1228     -18239.132      21.421231      692206.8     
     29000   297.78394     -24610.268      1542.3857     -18334.999      8.7050781      692578.5     
     29100   296.85596     -24596.764      1510.0514     -18368.579     -21.733307      692520.38    
     29200   306.1694      -24753.789      1577.2675     -18310.363     -10.51015       690561.1     
     29300   302.67728     -24632.757      1610.6319     -18211.469      62.879404      689984.93    
     29400   299.99868     -24589.358      1574.1964     -18247.079     -27.003837      692791.03    
     29500   295.51608     -24587.669      1520.2058     -18370.625     -76.064023      694947.02    
     29600   296.14437     -24637.899      1548.9147     -18382.16      -12.115812      692992.9     
     29700   299.00023     -24699.22       1593.2968     -18353.71       49.206769      689862.88    
     29800   298.26559     -24693.272      1575.3147     -18377.42       56.677831      689331.03    
     29900   299.21305     -24697.154      1496.322      -18445.235      10.170682      690578.51    
     30000   297.36355     -24694.771      1490.6986     -18477.871     -53.119398      691958.96    
     30100   299.95049     -24656.91       1553.5595     -18336.034      9.5643296      691959.51    
     30200   301.20587     -24592.942      1531.3357     -18274.337      28.627203      692356.08    
     30300   301.18726     -24588.1        1531.0938     -18270.032     -2.8537806      693089.82    
     30400   296.32681     -24529.886      1534.3616     -18285.802     -2.2724338      693418.54    
     30500   295.84868     -24561.283      1564.6157     -18294.543      18.750973      693080.9     
     30600   298.94158     -24575.354      1545.5908     -18278.482     -29.694561      693043.41    
     30700   302.57439     -24593.635      1578.9827     -18205.632     -36.299341      693292.19    
     30800   298.32372     -24483.837      1587.6295     -18154.746      6.8657273      694186.86    
     30900   302.54385     -24505.273      1515.5838     -18181.154     -6.2229438      694972.81    
     31000   295.56809     -24564.33       1532.3939     -18334.271     -26.327974      694182.73    
     31100   299.16583     -24682.316      1565.1731     -18362.297     -29.259524      691148.82    
     31200   302.80775     -24725.531      1553.5892     -18359.213      53.658995      688868.31    
     31300   297.9949      -24683.785      1515.4475     -18432.102      18.683053      689330.68    
     31400   289.65398     -24700.05       1549.9655     -18546.417     -6.0598632      690627.74    
     31500   297.00264     -24737.247      1543.3417     -18473.441     -11.511445      690517.32    
     31600   301.74597     -24640.931      1470.1054     -18374.972      22.791345      690028.97    
     31700   299.85267     -24693.395      1589.2374     -18338.396      2.8196758      691451.4     
     31800   301.04963     -24615.613      1554.471      -18276.356     -50.350879      693771.63    
     31900   300.59441     -24515.578      1540.5466     -18197.48      -29.11697       695273.42    
     32000   304.72278     -24550.385      1551.1616     -18156.058     -6.5953872      694385.8     
     32100   302.12175     -24568.593      1583.9288     -18182.838      4.9611895      692418.12    
     32200   302.69656     -24565.002      1538.1498     -18215.89       52.818859      692177.89    
     32300   299.44736     -24587.029      1574.8589     -18252.849      12.915255      693406.11    
     32400   299.01781     -24589.876      1584.4579     -18252.925     -51.799276      694377.12    
     32500   300.2987      -24506.261      1556.9927     -18176.417      22.173621      693249.68    
     32600   302.03283     -24558.941      1641.568      -18116.96       20.641117      691921.53    
     32700   296.86718     -24520.883      1569.3153     -18233.256      20.031512      692785.66    
     32800   292.98993     -24548.999      1564.0075     -18328.303     -41.752328      694377.95    
     32900   300.09043     -24602.165      1577.8588     -18254.765     -19.575738      693412.95    
     33000   301.70772     -24591.746      1576.3745     -18220.126      20.733667      691868.83    
     33100   300.97675     -24607.2        1547.0697     -18276.503      5.7775597      691969.88    
     33200   295.38804     -24601.088      1553.5225     -18352.762     -16.734466      693223.44    
     33300   297.38883     -24630.779      1565.5528     -18338.624     -5.3554843      693326.93    
     33400   303.35528     -24624.274      1570.654      -18232.188      17.735856      692224.1     
     33500   302.62395     -24586.926      1539.1793     -18237.939      44.972182      692284.44    
     33600   294.57098     -24522.181      1500.5232     -18339.841      45.594809      693083.71    
     33700   298.96823     -24629.71       1487.0305     -18390.975     -17.613779      692692.84    
     33800   299.98198     -24600.912      1513.2517     -18319.843      67.659278      691050.64    
     33900   304.6612      -24552.645      1523.8834     -18186.574      59.061415      691418.89    
     34000   298.92879     -24509.189      1511.365      -18246.745     -18.71261       694473.48    
     34100   299.90961     -24517.684      1446.0963     -18304.92      -47.221994      696100.1     
     34200   298.19646     -24600.199      1570.3525     -18290.408     -33.516938      693691.69    
     34300   307.34529     -24686.797      1595.0865     -18206.863      76.634399      689265.34    
     34400   304.27032     -24649.183      1566.6042     -18246.604      29.258059      689726.41    
     34500   298.93885     -24630.735      1492.3311     -18387.166     -28.865686      692709.44    
     34600   298.91317     -24658.641      1533.2034     -18374.608     -68.248935      693477.79    
     34700   301.16702     -24659.224      1567.0108     -18305.561      10.634476      691751       
     34800   309.18394     -24727.64       1513.4347     -18300.135     -21.610622      690555.54    
     34900   293.22075     -24651.271      1579.3545     -18411.56       30.029144      690527.72    
     35000   294.51925     -24732.207      1562.6962     -18488.516     -13.668675      690235.58    
     35100   302.16218     -24777.688      1491.8357     -18483.384      28.108573      688429.59    
     35200   298.7646      -24797          1559.8477     -18488.684      35.812622      687496.98    
     35300   301.02765     -24838.924      1511.8905     -18542.597     -6.331189       688323.05    
     35400   295.02496     -24796.219      1508.1001     -18599.087     -35.13425       689747.4     
     35500   295.65545     -24779.13       1550.9886     -18529.089     -33.217453      689608.82    
     35600   301.43624     -24765.533      1546.0294     -18428.573      25.971696      688667.64    
     35700   298.26883     -24769.194      1587.8266     -18440.778     -3.755488       688973.36    
     35800   295.32886     -24707.624      1531.1675     -18482.594     -9.7017655      689768.74    
     35900   296.66355     -24803.75       1555.8507     -18532.824     -32.464331      689230.73    
     36000   298.40788     -24705.986      1478.8279     -18484.359      37.028887      688414.55    
     36100   308.79061     -24805.626      1514.2038     -18383.603      0.94140756     689166.5     
     36200   306.53761     -24727.625      1475.4954     -18380.119     -39.942127      691414.67    
     36300   299.988       -24634.422      1493.0286     -18373.48      -35.013969      692717.83    
     36400   303.59812     -24612.991      1536.3861     -18251.313     -25.571423      691423.95    
     36500   304.08401     -24601.745      1533.8263     -18234.905      87.667266      689271.38    
     36600   300.53741     -24700.203      1572.6805     -18350.878      32.391128      689236.31    
     36700   297.20878     -24674.246      1542.375      -18408.13      -1.6301703      690292.78    
     36800   292.79833     -24624.766      1556.1842     -18414.939      24.48846       690868.43    
     36900   301.92537     -24628.836      1478.97       -18351.161      1.3097703      690523.2     
     37000   303.28752     -24660.833      1565.6718     -18274.807     -3.4694457      690008.3     
     37100   303.3078      -24646.609      1540.0837     -18285.848      28.688918      690440.76    
     37200   294.01702     -24660.436      1542.8317     -18444.592     -24.144259      691831.39    
     37300   299.14211     -24696.196      1480.5788     -18461.149     -36.699416      691065.24    
     37400   302.60765     -24755.572      1566.5292     -18379.494     -5.6825689      687911.81    
     37500   298.69245     -24647.508      1563.2689     -18336.917      81.80434       686914.48    
     37600   298.80519     -24677.352      1562.4184     -18365.82       4.3502126      689409.21    
     37700   297.37783     -24797.652      1550.527      -18520.697     -84.209528      690692.42    
     37800   295.21538     -24787.83       1532.9631     -18562.809     -36.343252      688430.88    
     37900   300.66881     -24854.061      1562.3069     -18513.021      77.460187      684581.73    
     38000   299.45253     -24825.864      1562.5818     -18503.88       99.107257      684748.98    
     38100   297.36235     -24779.578      1552.4937     -18500.903      12.583731      689066.85    
     38200   300.60102     -24651.913      1508.6009     -18365.656     -37.229498      692349.88    
     38300   295.56208     -24598.176      1605.7538     -18294.853     -14.885702      692595.37    
     38400   302.02279     -24672.947      1589.1179     -18283.575      24.159145      690503.38    
     38500   300.89244     -24768.715      1598.7633     -18387.664      0.054375498    688530.89    
     38600   296.70423     -24829.204      1614.6851     -18498.797      14.535416      687357.61    
     38700   301.95297     -24868.03       1545.8025     -18523.084      5.5901588      686992.42    
     38800   295.89737     -24809.323      1562.3722     -18544.053      21.882721      687610.4     
     38900   299.50485     -24784.98       1547.2132     -18477.533     -2.7111671      688487.32    
     39000   296.42033     -24674.27       1610.495      -18352.566      21.885047      689491.68    
     39100   301.4453      -24741.443      1602.4278     -18347.94       26.300811      690362.41    
     39200   298.02575     -24657.027      1545.0421     -18375.259      2.0209298      691198.91    
     39300   299.4967      -24657.241      1520.2736     -18376.863      12.398268      690748.92    
     39400   301.56191     -24660.228      1523.6288     -18343.671      10.741647      689294.63    
     39500   302.02598     -24691.552      1580.9183     -18310.33       58.259341      687991.52    
     39600   299.27221     -24645.277      1497.9855     -18390.755      75.238347      688669.39    
     39700   296.40608     -24767.079      1559.7704     -18496.326     -23.013396      689433.4     
     39800   300.21173     -24829.814      1559.0945     -18499.25      -6.1352317      687700.87    
     39900   302.3799      -24781.568      1547.6936     -18427.945      73.660637      685714.11    
     40000   304.91234     -24743.092      1600.4423     -18296.471      56.957591      687089.45    
     40100   300.7023      -24615.239      1557.108      -18278.865     -20.204305      691803.49    
     40200   299.68337     -24622.213      1536.3885     -18322.754     -85.385404      694543.45    
     40300   304.88117     -24652.327      1483.9389     -18322.704     -40.533693      692395.27    
     40400   303.8482      -24676.452      1539.1948     -18307.992      57.698962      688736.55    
     40500   300.62367     -24732.216      1577.0244     -18377.176      3.8905882      688868.71    
     40600   296.61076     -24695.172      1512.958      -18467.978     -26.525617      689627.88    
     40700   299.88714     -24741.525      1533.0664     -18442.149      22.901542      688799.88    
     40800   300.54021     -24705.458      1578.6322     -18350.136      24.470921      688443.94    
     40900   301.82313     -24696.188      1594.0056     -18305.102      15.515866      689817.24    
     41000   296.31704     -24619.994      1582.5265     -18327.9       -76.845756      691957.77    
     41100   294.52372     -24607.574      1522.7923     -18403.717     -18.15781       691162.14    
     41200   301.76837     -24813.788      1588.8438     -18428.734      6.4699363      688673.49    
     41300   298.16662     -24758.145      1557.873      -18461.308      57.474836      686899.24    
     41400   298.66886     -24784.344      1505.7075     -18531.689      31.829163      687343.74    
     41500   294.08981     -24752.52       1494.5645     -18583.786     -23.754528      688680.17    
     41600   301.02834     -24822.578      1538.6851     -18499.445     -26.49205       688502.3     
     41700   299.9968      -24768.03       1600.5307     -18399.446      30.06095       688207.79    
     41800   302.8018      -24764.923      1551.677      -18400.611     -12.257057      688645.71    
     41900   298.07151     -24755.407      1570.6817     -18447.273      23.015643      688926.89    
     42000   298.10045     -24860.809      1578.2328     -18544.664     -27.719315      688940.09    
     42100   295.46581     -24850.707      1522.0707     -18632.598      23.657631      686909.83    
     42200   299.315       -24949.214      1523.5741     -18668.423      26.529547      684189.1     
     42300   297.12658     -24873.315      1509.5807     -18641.299      88.539008      683765.96    
     42400   299.63769     -24855.047      1554.148      -18538.553     -11.459834      686043.95    
     42500   301.95248     -24769          1524.5947     -18445.27      -22.89764       688622.53    
     42600   302.19759     -24735.944      1540.2893     -18392.624     -73.981929      690255.11    
     42700   303.50462     -24751.961      1569.0317     -18359.124      22.898535      689223.8     
     42800   301.80385     -24716.961      1545.2012     -18374.986      31.955217      688501.02    
     42900   294.84165     -24777.653      1571.8301     -18519.704     -22.357644      688512.63    
     43000   299.01307     -24822.817      1514.7943     -18555.605     -19.932968      687415.45    
     43100   302.72621     -24853.629      1537.506      -18504.69       13.009579      686058.29    
     43200   302.88197     -24830.155      1572.7226     -18443.524     -5.5408058      686532       
     43300   300.8135      -24702.085      1578.1013     -18342.951      13.055305      688224.78    
     43400   306.28071     -24705.164      1540.9811     -18296.256     -19.761803      690155.85    
     43500   301.56621     -24670.416      1529.3971     -18348.022     -22.954877      690894.27    
     43600   296.73268     -24719.954      1540.5428     -18463.237      3.345185       689624.88    
     43700   300.48662     -24828.151      1522.8127     -18529.5        41.809014      686638.1     
     43800   303.15821     -24935.442      1561.0221     -18556.12       21.462595      685284.15    
     43900   298.21484     -24807.847      1528.8558     -18539.26       32.202815      686535       
     44000   297.50129     -24723.196      1555.8315     -18438.974      2.0882953      688928.93    
     44100   299.18986     -24697.942      1583.9244     -18358.79      -50.744494      690523.96    
     44200   298.42322     -24670.908      1607.6174     -18320.248     -13.102461      689710.13    
     44300   300.10935     -24710.72       1602.8489     -18338.03       24.518909      687634.98    
     44400   300.69957     -24802.151      1515.2864     -18507.642     -17.085576      686796.41    
     44500   295.44162     -24711.196      1464.9701     -18550.572      71.926878      686864.73    
     44600   299.34035     -24807.499      1560.2778     -18489.602     -39.312991      687545.12    
     44700   297.75994     -24690.632      1546.1766     -18411.954      31.32891       687584.02    
     44800   299.58885     -24707.984      1539.1576     -18407.257      5.5438672      688801.66    
     44900   299.73622     -24708.461      1524.0671     -18420.482     -48.790411      689674.35    
     45000   305.42666     -24770.046      1497.5748     -18418.118     -65.927542      688382.52    
     45100   303.87205     -24777.72       1556.292      -18391.783      37.828737      686447.9     
     45200   300.28737     -24781.165      1557.9281     -18450.566      29.238008      686549.72    
     45300   296.98562     -24745.312      1503.4331     -18521.685     -0.65423512     688074.26    
     45400   300.32951     -24792.704      1520.1178     -18499.245     -40.807132      688513.55    
     45500   300.32394     -24707.193      1543.5868     -18390.354      19.137802      688334.49    
     45600   301.72564     -24689.751      1546.0071     -18348.214      48.573324      689477.44    
     45700   296.2093      -24614.384      1549.0967     -18357.432     -19.894334      691377.32    
     45800   301.20269     -24645.305      1485.0426     -18373.043     -42.880077      691381.24    
     45900   298.61927     -24656.075      1534.7437     -18375.172      30.020232      689877.94    
     46000   300.43826     -24697.576      1553.1455     -18369.361     -2.2124782      689529.75    
     46100   302.88505     -24749.283      1557.7851     -18377.54      -33.957934      689887.83    
     46200   295.27527     -24657.695      1580.8651     -18383.819      29.576593      689730.86    
     46300   304.21192     -24744.63       1551.221      -18358.362     -52.006857      689595.54    
     46400   303.4317      -24700.275      1545.9741     -18331.654     -36.787583      688570.59    
     46500   306.16174     -24835.613      1559.973      -18409.604      12.773519      686281.53    
     46600   298.77516     -24801.275      1494.2978     -18558.34       50.546935      685601.32    
     46700   297.26717     -24842.694      1527.3006     -18590.724     -10.337273      686677.9     
     46800   300.63563     -24889.419      1569.2816     -18541.931      5.0073592      687259.42    
     46900   304.66347     -24827.493      1524.7869     -18460.483     -37.545066      688450.54    
     47000   298.60856     -24755.466      1602.6522     -18406.825     -9.360305       689185.41    
     47100   301.73171     -24751.989      1569.8012     -18386.561     -14.415281      689022.28    
     47200   305.16146     -24787.289      1477.4511     -18459.699     -37.406284      688217.86    
     47300   298.59178     -24853.316      1510.8845     -18596.71       2.5759115      686522.86    
     47400   295.70195     -24913.369      1560.4626     -18653.115     -11.465273      685219.3     
     47500   297.20996     -24926.94       1555.2217     -18647.959      15.143035      685383.96    
     47600   301.1674      -24829.699      1485.4466     -18557.595     -34.575268      687019.21    
     47700   300.70598     -24753.91       1492.7597     -18481.826      24.611432      687278.9     
     47800   303.64411     -24863.78       1560.3393     -18477.418      28.391969      686912.72    
     47900   303.8082      -24864.591      1520.0323     -18515.928     -20.518803      687991.32    
     48000   296.67658     -24775.06       1476.491      -18583.287     -12.549017      689054.48    
     48100   290.45012     -24786.667      1476.1671     -18694.179      23.84544       688446.89    
     48200   295.7562      -24880.288      1542.065      -18637.569      6.8815797      686341.13    
     48300   297.84328     -24798.55       1515.4989     -18549.226      108.24466      684368.16    
     48400   301.9136      -24873.943      1530.103      -18545.322     -6.3587587      686179.25    
     48500   297.98004     -24727.503      1476.2004     -18515.303     -45.242383      689670.06    
     48600   304.6918      -24750.758      1533.6809     -18374.403     -74.661119      690696.54    
     48700   301.80337     -24708.985      1541.1927     -18371.027      23.037294      689617.95    
     48800   302.68732     -24767          1526.6806     -18429.504     -12.00339       688960.49    
     48900   298.50391     -24800.465      1524.1489     -18531.991     -9.0630813      688211.66    
     49000   300.39909     -24879.362      1510.2752     -18594.64       9.7896167      686324.14    
     49100   299.66974     -24902.673      1547.2207     -18592.598     -13.75095       685205.66    
     49200   306.71741     -24910.91       1526.2144     -18509.827      29.357646      684718.37    
     49300   303.44338     -24823.253      1556.3926     -18444.029      17.647156      686466.39    
     49400   297.36451     -24795.126      1574.7328     -18494.177     -67.84773       689368.87    
     49500   298.72355     -24855.42       1544.6387     -18562.965     -82.044245      689347.47    
     49600   298.25436     -24855.289      1510.535      -18604.394      11.222456      686203.2     
     49700   303.90772     -24972.586      1502.1853     -18640.189      8.1693264      683453.54    
     49800   297.16728     -24928.555      1520.8361     -18684.638      30.532033      683789.08    
     49900   298.23979     -24973.464      1519.6244     -18713.712     -26.640439      685590.7     
     50000   300.52053     -24965.418      1532.4075     -18656.634     -10.796868      687262.18    
     50100   297.81062     -24810.518      1531.4922     -18545.719      18.447342      686970.5     
     50200   302.99946     -24889.545      1542.324      -18531.445      30.670447      685186.74    
     50300   300.69387     -24925.259      1531.4385     -18614.688      42.22901       684059.03    
     50400   297.96106     -24977.216      1535.6746     -18705.843     -6.8098679      684621.61    
     50500   298.51155     -24966.011      1520.3853     -18701.179     -32.20366       685472.51    
     50600   297.84473     -24906.321      1509.1776     -18663.294     -8.1379612      685312.14    
     50700   297.2642      -24893.501      1543.7353     -18625.144      20.233366      684958.07    
     50800   302.29193     -24895.412      1512.9937     -18577.888      14.880356      685602.08    
     50900   302.36945     -24805.305      1511.4221     -18488.12      -22.9968        687196.56    
     51000   305.11034     -24805.534      1588.0388     -18368.17      -21.852193      688635.1     
     51100   301.35801     -24738.379      1549.845      -18398.847      7.6714368      689366.12    
     51200   295.60165     -24717.475      1549.7343     -18469.543      15.205429      688793.27    
     51300   296.08931     -24788.025      1567.5824     -18514.494     -3.9995734      687949.79    
     51400   300.0238      -24797.865      1486.8846     -18542.498      23.105721      687350.95    
     51500   295.19703     -24791.92       1549.9133     -18550.24       37.29716       687588.21    
     51600   297.91094     -24792.022      1595.8874     -18461.234     -31.206134      687924.27    
     51700   303.95607     -24769.055      1548.7264     -18389.348      12.112865      688206.98    
     51800   303.42722     -24754.465      1551.0176     -18380.872     -27.457058      689365.04    
     51900   302.30719     -24723.758      1523.3538     -18395.631     -10.682302      689575.76    
     52000   300.41828     -24797.292      1539.3948     -18483.146     -14.622552      688262.35    
     52100   295.3418      -24841.725      1554.1873     -18593.47       21.298539      686148.92    
     52200   301.66148     -24947.638      1545.0158     -18608.111      30.674573      683927.98    
     52300   303.18195     -24951.723      1558.3055     -18574.741      15.073149      684117.96    
     52400   301.39915     -24764.72       1496.4477     -18477.931      32.319385      685847.63    
     52500   302.43328     -24789.249      1531.6094     -18450.862      4.0838368      687568.66    
     52600   299.23563     -24747.481      1537.1155     -18454.41      -36.566854      689061.99    
     52700   296.75987     -24759.388      1568.4912     -18474.291     -19.594487      688203.94    
     52800   302.21225     -24859.703      1573.1307     -18483.308      5.7712624      686488.06    
     52900   300.1471      -24826.568      1530.5926     -18525.534     -4.5912514      686139.64    
     53000   296.86965     -24848.175      1537.6329     -18592.191      30.09627       685916.94    
     53100   295.88727     -24873.091      1526.9576     -18643.397     -5.4819894      685909.09    
     53200   300.49656     -24885.096      1519.1671     -18589.933     -22.654061      685930.05    
     53300   301.45975     -24790.334      1527.2246     -18471.805      7.9130428      687138.41    
     53400   297.02753     -24794.279      1608.2919     -18465.127     -20.032581      688621.09    
     53500   300.13305     -24776.734      1538.7811     -18467.734     -12.68369       688250.33    
     53600   298.94478     -24816.14       1559.1672     -18505.64       13.98984       686543.2     
     53700   301.18326     -24900.147      1523.937      -18589.3        8.9473841      685704.5     
     53800   295.0512      -24846.58       1506.8161     -18650.315      32.595002      685858.24    
     53900   295.53129     -24798.764      1540.9653     -18560.719      26.404043      686337.49    
     54000   302.87953     -24845.926      1565.1247     -18466.931     -13.195495      686711.23    
     54100   300.0932      -24792.286      1568.0375     -18454.663     -41.486921      687526.88    
     54200   298.72175     -24747.855      1554.9524     -18445.115      4.2723778      688081.08    
     54300   304.35696     -24754.29       1544.1391     -18372.799     -6.0966514      688818.62    
     54400   302.4722      -24644.52       1533.9265     -18303.198      35.997068      689319.33    
     54500   304.20854     -24710.72       1527.7503     -18347.977     -21.686872      690086.94    
     54600   296.14111     -24762.605      1566.5937     -18489.24      -25.448689      690062.34    
     54700   297.0959      -24756.439      1552.4809     -18482.012      21.559483      688585.05    
     54800   301.9452      -24826.387      1601.2617     -18426.106      7.4037014      686731.55    
     54900   299.34654     -24727.886      1590.5536     -18379.615      58.423277      686089.65    
     55000   302.47745     -24788.664      1581.2294     -18399.955      6.4934111      687226.67    
     55100   298.7564      -24811.375      1544.9969     -18518.04      -97.000505      688509.04    
     55200   298.80425     -24836.446      1508.7022     -18578.645      5.1114722      686501.19    
     55300   299.90083     -24935.046      1553.5574     -18614.961      46.132192      684198.24    
     55400   300.94368     -24973.484      1546.6038     -18643.778     -14.797877      684162.44    
     55500   295.79821     -24891.784      1548.5187     -18641.943      0.23842904     685177.65    
     55600   300.13887     -24870.148      1553.9853     -18545.851      32.012754      686078.03    
     55700   303.21848     -24877.534      1574.7107     -18483.566     -56.124243      687166.67    
     55800   305.49889     -24807.36       1483.9839     -18467.875      4.5850055      686913.55    
     55900   299.12335     -24802.431      1551.3999     -18496.861      39.556973      686670.33    
     56000   292.91788     -24791.774      1556.6129     -18579.618      10.66872       687436.51    
     56100   299.50915     -24901.54       1511.7879     -18629.449     -45.32023       686921.77    
     56200   299.65443     -24837.653      1507.1789     -18567.863      76.605532      683995.95    
     56300   300.88904     -24890.883      1602.7693     -18505.88       56.914569      683407.7     
     56400   299.92107     -24882.443      1582.5518     -18533.042     -40.973801      685705.61    
     56500   293.76527     -24857.547      1535.1932     -18653.342     -41.791643      687941.14    
     56600   293.52672     -24844.337      1554.03       -18625.088     -9.8639228      687570.53    
     56700   294.84739     -24769.207      1571.7466     -18511.251      67.496879      685710.48    
     56800   298.78742     -24844.911      1585.9977     -18510.082      16.112878      685462.33    
     56900   296.25303     -24879.755      1615.2784     -18555.926     -8.871241       686453.28    
     57000   296.65362     -24840.754      1538.2028     -18587.633     -19.43856       687031.29    
     57100   296.31429     -24848.779      1600.4223     -18538.832      2.3029849      686132.23    
     57200   302.59254     -24778.657      1528.2949     -18441.053      64.144623      686270.2     
     57300   298.90747     -24788.198      1599.4324     -18438.027      20.356042      687458.85    
     57400   300.66085     -24794.738      1522.1439     -18493.987     -13.368739      687371.64    
     57500   296.0104      -24893.501      1536.9227     -18651.884      34.580567      684725.22    
     57600   299.48035     -24979.794      1528.0315     -18691.918      61.520422      682400.7     
     57700   299.61445     -24970.552      1531.147      -18677.429      55.262509      682384.15    
     57800   298.76584     -24917.955      1555.9357     -18613.531     -0.88222284     685319.65    
     57900   299.05214     -24804.905      1571.6357     -18480.231     -26.88168       688339.38    
     58000   298.32829     -24810.207      1605.6664     -18463.006     -41.619616      689689.63    
     58100   299.56432     -24795.978      1559.0046     -18475.795     -10.133579      688601.02    
     58200   301.95274     -24884.222      1578.7616     -18506.321     -27.38715       687334.43    
     58300   298.60512     -24873.028      1562.4799     -18564.614      15.805717      686364.15    
     58400   298.23629     -24924.108      1551.934      -18632.102      28.413365      685939.07    
     58500   298.3965      -24946.626      1564.1125     -18639.896      2.4186307      686441.23    
     58600   301.50225     -24928.067      1579.6504     -18556.436     -33.091712      687076.13    
     58700   296.93889     -24839.308      1615.2696     -18504.587      14.175343      687362.3     
     58800   299.82174     -24824.69       1598.6696     -18460.75      -1.5964492      688000.94    
     58900   301.41087     -24764.257      1618.7845     -18354.945      13.039458      688431.04    
     59000   305.55472     -24764.738      1568.0891     -18340.26      -25.289208      689675.5     
     59100   297.88206     -24797.533      1604.4387     -18458.653     -35.244547      689789.43    
     59200   296.39241     -24813.6        1570.8127     -18532.021      49.995567      687693.91    
     59300   301.2718      -24902.844      1569.6902     -18544.836      35.010455      686061.29    
     59400   298.77556     -24912.231      1618.741      -18544.847      15.596577      686206.79    
     59500   301.58725     -24828.33       1545.8748     -18489.125     -21.777923      688129.5     
     59600   301.75366     -24714.452      1561.7602     -18356.716     -27.990676      689880.94    
     59700   301.26751     -24745.435      1602.6748     -18354.512     -57.696734      690621.45    
     59800   300.49496     -24722.285      1526.0086     -18420.306      14.417496      689666.45    
     59900   295.67372     -24791.887      1560.4873     -18532.057     -44.013831      687802.25    
     60000   296.9432      -24892.264      1593.1531     -18579.591      46.735316      684984.72    
     60100   294.43837     -24871.357      1597.6219     -18594.027      42.524368      684546.23    
     60200   299.7891      -24894.976      1551.8353     -18578.389      20.58923       685640.75    
     60300   299.48617     -24840.208      1553.2622     -18527.009     -3.2475045      687563.47    
     60400   303.11496     -24822.647      1564.7162     -18440.318     -39.003327      688652.57    
     60500   300.37947     -24729.655      1569.8585     -18385.662     -24.100199      688198.79    
     60600   298.48848     -24720.756      1574.7688     -18401.907      60.598441      687362.32    
     60700   306.78742     -24839.918      1530.1267     -18433.81      -40.877662      688436.67    
     60800   293.21038     -24673.196      1547.5084     -18465.496      20.922987      688720.71    
     60900   300.91005     -24804.453      1572.882      -18449.003     -8.2061289      687380.35    
     61000   300.59857     -24721.242      1608.6446     -18334.981      18.497726      686167.86    
     61100   306.37431     -24792.84       1605.6315     -18317.793     -0.084495683    686903       
     61200   295.37794     -24660.914      1531.1585     -18435.113     -4.3391783      688875.56    
     61300   304.10866     -24849.647      1533.3914     -18482.85      -47.184242      688725.93    
     61400   300.86186     -24902.885      1599.7708     -18521.312     -13.597739      685923.84    
     61500   297.00243     -24915.593      1599.1443     -18595.988      63.824361      683050.81    
     61600   296.22037     -24984.648      1555.4145     -18721.202      35.883544      682304.66    
     61700   294.26899     -24941.607      1520.8873     -18743.703      1.3152879      683278.71    
     61800   298.9607      -25014.483      1563.3246     -18699.573     -49.618009      684226.26    
     61900   297.39645     -24936.61       1550.3397     -18659.546     -4.5933189      683976.96    
     62000   305.66856     -25046.651      1560.3106     -18628.143     -26.34066       682752.56    
     62100   303.58678     -24924.364      1514.626      -18584.627      20.613497      682852.66    
     62200   298.59793     -24832.396      1622.2349     -18464.341      36.718498      684555.37    
     62300   305.41092     -24848.891      1553.0775     -18441.711     -64.450871      686643.3     
     62400   297.21978     -24811.378      1526.0627     -18561.4        24.798861      686141.03    
     62500   296.90585     -24941.936      1608.0227     -18614.987      12.756284      683391.74    
     62600   300.19443     -24989.986      1581.9994     -18636.793      86.38394       680168.18    
     62700   301.9749      -25025.092      1514.0487     -18711.551      37.467818      680268.85    
     62800   297.77515     -25005.469      1482.1507     -18790.576     -7.5080892      682916.73    
     62900   295.11446     -24947.044      1522.4202     -18734.169     -20.201158      683975.79    
     63000   301.97548     -24937.527      1553.4824     -18584.543      65.23555       683057.66    
     63100   303.45699     -24928.59       1546.0604     -18559.482     -24.4013        684092.76    
     63200   300.30028     -24913.411      1566.7771     -18573.757     -23.603487      684436.48    
     63300   299.73165     -24978.187      1594.3722     -18619.976     -29.712329      683570.76    
     63400   297.99446     -24990.668      1547.1133     -18707.327      16.959891      681975.17    
     63500   298.39425     -25102.026      1582.9726     -18776.471      6.6650179      681064.03    
     63600   301.20597     -25041.341      1530.3864     -18723.683     -13.95817       682266.9     
     63700   297.47655     -24900.765      1578.7918     -18593.976      34.463372      683806.11    
     63800   297.09126     -24869.588      1575.1934     -18572.522     -17.631171      685745.38    
     63900   303.39494     -24915.63       1519.2884     -18574.28      -56.567665      685710.56    
     64000   299.38795     -24888.09       1527.0286     -18602.685      45.068212      682987.4     
     64100   298.64843     -25011.197      1562.4228     -18702.152      62.95868       681249.07    
     64200   294.35822     -25009.253      1532.9625     -18797.856     -12.940942      681855.33    
     64300   295.67799     -24988.233      1535.1774     -18753.644      28.708826      682382.87    
     64400   299.04549     -24971.021      1566.78       -18651.307      0.20937889     682662.27    
     64500   298.47733     -24897.571      1532.6995     -18620.969      30.640802      682737.56    
     64600   302.36318     -24958.828      1547.6093     -18605.555      0.12862922     683598.73    
     64700   298.05641     -24860.214      1556.9182     -18566.083     -0.45915966     685050.71    
     64800   305.41095     -24817.957      1488.7738     -18475.08      -8.5774957      685952.34    
     64900   303.03105     -24805.589      1561.5932     -18427.718      25.258336      685531.61    
     65000   299.37563     -24873.02       1560.5806     -18554.259      3.3466898      685017.41    
     65100   298.46324     -24890.143      1483.5108     -18662.954      20.830794      683860.22    
     65200   299.07167     -24972.756      1540.4918     -18678.915      11.594479      682454.66    
     65300   298.82315     -24943.569      1542.6124     -18651.557      31.395468      682602.9     
     65400   301.99658     -24987.73       1602.6579     -18585.235     -49.848138      683169.91    
     65500   303.42403     -24914.805      1569.3039     -18522.976      38.678009      683565.07    
     65600   302.34569     -24897.204      1584.3613     -18507.458     -18.41859       685514.43    
     65700   297.6571      -24859.628      1535.497      -18593.264     -32.163055      687183.56    
     65800   298.8935      -24906.379      1492.1979     -18663.663     -2.7747364      685993.09    
     65900   300.5034      -24951.693      1556.5365     -18619.052      18.811157      683231.35    
     66000   311.4327      -25029.707      1539.6709     -18540.225      45.912271      681234.66    
     66100   302.68742     -24987.754      1527.5209     -18649.416      6.4921649      683305.78    
     66200   296.89413     -25036.116      1574.2556     -18743.12      -130.71101      686070.98    
     66300   299.57124     -24941.887      1495.6909     -18684.906      12.571273      684220.3     
     66400   301.92332     -24988.63       1556.7261     -18633.232      21.49391       681978.48    
     66500   301.07919     -25021.541      1584.9771     -18651.308      6.4425408      681835.34    
     66600   299.16228     -25062.431      1528.1409     -18779.501     -57.297244      683286.73    
     66700   294.88263     -25056.271      1505.3378     -18864.163     -25.97311       682592.27    
     66800   298.90836     -25066.743      1511.7568     -18804.232      14.931428      680041.95    
     66900   300.50483     -25037.615      1486.4572     -18775.03       82.330033      679207.09    
     67000   298.6495      -25027.1        1506.1339     -18774.327     -9.88223        681440.11    
     67100   300.09098     -24999.355      1507.4917     -18722.313     -45.022252      683331.42    
     67200   297.86792     -24920.525      1510.0687     -18676.239      25.081144      683059.87    
     67300   301.0813      -24952.312      1490.8734     -18676.149      47.71352       682919.01    
     67400   299.78125     -24978.106      1540.6725     -18672.806     -44.771318      683414.06    
     67500   297.39494     -24938.164      1544.6118     -18666.852      59.614357      682708.7     
     67600   301.11309     -24956.046      1572.2712     -18597.98       52.874206      682818.86    
     67700   296.76502     -24786.477      1543.6292     -18526.159      52.718524      685357.24    
     67800   298.34961     -24789.994      1517.449      -18530.672     -49.95395       688174.31    
     67900   300.59164     -24894.726      1558.3031     -18558.916     -58.647272      687675.3     
     68000   298.27527     -24911.46       1561.7431     -18609.026      19.999594      684082.44    
     68100   300.80814     -24993.265      1500.8561     -18711.461      71.094709      680536.15    
     68200   294.48565     -25036.559      1558.3816     -18797.717      91.598745      679827.76    
     68300   296.1307      -25024.194      1547.4801     -18770.108      20.363113      682497.97    
     68400   301.82799     -24949.253      1499.4336     -18652.662     -39.408243      685833.31    
     68500   299.97832     -24858.112      1493.3996     -18596.953     -36.25571       687055.31    
     68600   301.06384     -24845.723      1525.3496     -18535.361      16.312897      685716.09    
     68700   300.39474     -24847.194      1554.6888     -18518.128      47.674791      684723.21    
     68800   297.6861      -24828.33       1531.3552     -18565.647      29.666783      685283.8     
     68900   297.4713      -24934.954      1510.7725     -18696.268     -67.32919       686059.18    
     69000   297.82909     -24997.673      1534.1769     -18729.896     -17.391454      683883.69    
     69100   303.2902      -25036.105      1544.6992     -18671.009      42.738684      681427.23    
     69200   304.32406     -24998.213      1537.4091     -18623.975      69.016135      680911.28    
     69300   299.58939     -24919.98       1539.0882     -18619.314      24.538236      683371.68    
     69400   293.23024     -24835.987      1534.7498     -18640.73      -12.444723      686166.41    
     69500   297.2128      -24862.44       1532.0081     -18606.627     -6.7246889      686368.68    
     69600   302.91788     -24869.514      1544.2269     -18510.808      2.6086901      685302.98    
     69700   300.43684     -24864.602      1572.1916     -18517.364      21.956251      684287.77    
     69800   296.65205     -24881.612      1528.813      -18637.907      9.4865694      683949.99    
     69900   305.08465     -25010.267      1448.7052     -18712.644     -14.516784      683170.69    
     70000   302.22621     -25064.869      1545.6074     -18715.775     -40.968842      681982.57    
     70100   298.84981     -24986.613      1528.1697     -18708.621      38.002691      681014.08    
     70200   302.00559     -25066.379      1527.5253     -18738.874     -0.31770223     681305.21    
     70300   295.14105     -25049.887      1549.6219     -18809.388     -46.290923      681799.29    
     70400   298.91107     -25062.736      1467.7177     -18844.222      60.256556      680323.54    
     70500   298.82591     -25087.08       1554.4963     -18783.141      55.931498      679458.24    
     70600   301.22208     -24942.787      1472.0135     -18683.247      58.762877      681124.16    
     70700   295.37064     -24875.042      1527.4535     -18653.062     -49.040231      685020.1     
     70800   302.3593      -24923.896      1494.544      -18623.75      -67.695085      685885.23    
     70900   303.21714     -24917.707      1510.834      -18587.638      39.817467      682436.02    
     71000   305.71433     -25030.803      1545.3438     -18626.534      38.295508      680287.84    
     71100   296.31529     -24996.038      1498.4319     -18788.066      25.446912      680703.07    
     71200   297.54028     -25033.93       1504.8256     -18800.095     -55.495771      681605.87    
     71300   302.64851     -25049.724      1524.9541     -18714.572     -1.3290045      680537.51    
     71400   300.18915     -24987.921      1541.1709     -18675.64       75.93148       679659.46    
     71500   304.47883     -25022.694      1488.1352     -18695.27      -3.8277617      681160.09    
     71600   294.69305     -25017.035      1549.993      -18783.286     -23.516047      682629.48    
     71700   295.31261     -25019.007      1509.3195     -18816.084     -27.621087      683153.77    
     71800   300.43987     -25069.833      1592.6262     -18702.112      9.461034       682122.16    
     71900   297.34126     -24941.318      1551.5198     -18663.951      70.252238      681724.83    
     72000   299.17851     -24964.523      1513.9827     -18695.493     -2.1702086      683054.15    
     72100   299.46464     -25006.45       1509.6967     -18737.159     -16.713416      683306.21    
     72200   298.5425      -25004.19       1531.592      -18727.659      29.175685      681997.81    
     72300   303.35131     -25011.633      1541.9781     -18648.287      19.699578      680746.21    
     72400   304.04686     -25017.374      1540.9728     -18643.978      33.526827      681871.5     
     72500   294.77661     -24963.444      1537.3173     -18741.042     -30.962973      684607.59    
     72600   296.70391     -24924.617      1495.5728     -18713.327     -37.557597      685173.27    
     72700   302.35727     -24921.378      1531.9765     -18583.832      47.475423      682971.03    
     72800   300.34389     -24971.236      1599.5077     -18598.159      17.808393      682118.9     
     72900   295.84218     -24957.585      1577.409      -18678.155      3.4260236      682806.85    
     73000   298.10068     -25022.251      1539.5992     -18744.735     -24.990219      682868.55    
     73100   297.52167     -24995.219      1513.4747     -18753.03       14.790101      681843.47    
     73200   303.96737     -25001.292      1536.3998     -18633.732      59.238347      681261.64    
     73300   302.14424     -24913.658      1520.4121     -18591.062      58.027744      682986.49    
     73400   301.28739     -24919.43       1499.5839     -18631.281     -23.329981      685103.91    
     73500   293.63074     -24896.219      1526.3054     -18703.041     -67.252789      685775.44    
     73600   298.37565     -25024.126      1528.8426     -18752.996     -5.9851552      683159.11    
     73700   299.67199     -24980.638      1537.2572     -18680.491      64.950176      680548.11    
     73800   305.27009     -25031.834      1546.2134     -18633.756      44.073389      680248.35    
     73900   297.12209     -25007.525      1570.314      -18714.848     -36.438778      682703.13    
     74000   291.30164     -24980.324      1550.5064     -18799.963     -62.644583      683686.02    
     74100   297.80047     -25083.577      1579.7735     -18770.658     -5.5179485      680607.78    
     74200   305.10144     -25101.596      1588.3407     -18664.071      37.479966      678543.93    
     74300   303.15119     -25057.285      1568.3679     -18670.729      36.742493      680329.93    
     74400   298.05253     -25012.809      1508.646      -18767.012     -57.534619      683624.41    
     74500   294.59603     -24991.651      1505.9362     -18803.5       -70.303915      684097.88    
     74600   303.06229     -25008.692      1530.6377     -18661.28       47.395803      681806.77    
     74700   308.76663     -25079.248      1520.1891     -18651.621      40.734461      681763.88    
     74800   295.29541     -24933.279      1520.6882     -18719.26       55.796528      683798.31    
     74900   303.70535     -25030.481      1479.0959     -18724.39      -69.815604      684808.71    
     75000   300.44465     -24924.705      1529.4658     -18620.068      29.443033      683164.68    
     75100   306.0432      -24935.809      1502.2423     -18569.414      83.962784      682172.77    
     75200   303.37        -24919.424      1460.4453     -18637.314     -14.475246      683603.23    
     75300   296.92452     -24932.022      1530.5027     -18682.296     -30.698082      684348.22    
     75400   301.02631     -25058.948      1607.0577     -18667.474     -36.687137      682929.58    
     75500   299.56359     -24967.187      1569.8202     -18636.199      79.625294      681112.81    
     75600   304.12669     -25029.226      1572.228      -18623.306      24.359711      682039.25    
     75700   295.47812     -24926.511      1508.3784     -18721.898      39.287092      683933.46    
     75800   299.07589     -24962.864      1432.6724     -18776.776     -51.663339      684959.62    
     75900   295.08023     -24876.255      1501.9564     -18684.388      35.525966      683617.75    
     76000   308.06734     -25048.208      1520.5804     -18631.304      1.2216278      682384.68    
     76100   302.994       -25011.148      1523.2062     -18672.252      8.6419067      682288.41    
     76200   297.87033     -24995.319      1501.6159     -18759.448      8.0738948      682133.77    
     76300   302.08631     -25097.592      1504.3577     -18791.971     -4.0896736      681357.91    
     76400   300.32159     -25061.261      1574.7698     -18713.276      44.167761      680531.28    
     76500   302.01052     -24993.504      1600.625      -18592.821      41.300054      681451       
     76600   303.18632     -24971.324      1503.4128     -18649.165     -18.431483      683963.82    
     76700   292.20145     -24926.429      1556.7949     -18725.478     -34.203224      684471.7     
[...]
    987500   292.38775     -25868.535      1533.1717     -19688.246     -39.526496      663004.69    
    987600   293.3744      -25802.982      1488.6575     -19651.526      60.800895      662248.03    
    987700   302.47653     -25877.8        1511.802      -19558.533      17.313444      661688.27    
    987800   304.55866     -25862.697      1497.3514     -19524.788      17.424181      661865.19    
    987900   299.89733     -25797.203      1504.8549     -19525.876      7.8076847      663407.87    
    988000   300.40611     -25842.846      1518.183      -19550.105     -59.504175      665233.54    
    988100   296.0352      -25794.643      1512.8585     -19576.696     -21.903764      665028.41    
    988200   301.4171      -25864.881      1567.9229     -19506.331     -3.8728267      663512.75    
    988300   303.8547      -25790.527      1524.3846     -19436.773      49.333862      663360.38    
    988400   301.52261     -25766.061      1514.8923     -19458.866      11.094088      665065.45    
    988500   300.63524     -25880.413      1523.4438     -19578.769     -107.54789      666192.49    
    988600   294.49704     -25817.11       1502.0098     -19634.459     -6.4364589      664412.31    
    988700   304.19858     -25921.833      1559.1523     -19527.846      64.74133       661206.56    
    988800   304.62161     -25850.792      1569.5318     -19439.702      59.406805      662029.73    
    988900   299.11505     -25740.159      1490.2074     -19495.913     -38.714365      665906.61    
    989000   299.42032     -25822.326      1555.1349     -19508.301     -107.9813       667112.84    
    989100   298.6756      -25798.987      1600.7232     -19451.21       7.9700261      664387.42    
    989200   304.47378     -25732.568      1533.2709     -19360.088      56.379935      663133.53    
    989300   304.9119      -25768.17       1520.0278     -19401.971      40.06219       664364.85    
    989400   298.01707     -25786.5        1489.7894     -19560.122     -86.028948      666134.83    
    989500   295.23749     -25757.206      1525.5752     -19539.221     -6.3896376      664649.65    
    989600   304.88798     -25884.874      1553.504      -19485.579     -0.97632524     662914.2     
    989700   301.73235     -25869.21       1571.7826     -19501.79       19.653424      663088.51    
    989800   296.4534      -25815.933      1491.5104     -19612.687     -22.370659      664523.74    
    989900   296.95928     -25842.408      1489.6572     -19632.975     -9.1254662      665048.46    
    990000   300.20683     -25790.43       1540.0011     -19479.038     -15.691603      664926       
    990100   304.0957      -25803.888      1517.7536     -19452.934      0.9225664      664900.53    
    990200   297.3335      -25784.126      1534.7812     -19523.622      33.425025      664631.27    
    990300   297.47194     -25832.002      1490.5717     -19613.507      15.266443      664774.76    
    990400   298.11194     -25877.572      1530.4282     -19609.048     -27.49003       664808.98    
    990500   307.86158     -25863.516      1488.0644     -19482.398      15.729058      664049.32    
    990600   304.47731     -25804.778      1512.5472     -19452.966      8.9290777      664466.83    
    990700   299.28112     -25737.256      1496.6372     -19483.94       6.7887421      665076.87    
    990800   295.26733     -25709.863      1518.439      -19498.54       56.283934      664455.21    
    990900   301.03841     -25774.871      1524.8412     -19465.422      2.9881609      664118.9     
    991000   302.62834     -25757.607      1551.344      -19396.385      53.424929      663818.93    
    991100   303.13        -25772.329      1533.3046     -19421.174      7.7550244      665207.15    
    991200   292.82739     -25675.659      1487.3118     -19534.242     -14.747111      666162.12    
    991300   295.23726     -25795.056      1547.24       -19555.409     -7.3714472      664657.33    
    991400   302.35311     -25768.543      1510.7717     -19452.268      70.182887      663043.91    
    991500   303.11935     -25801.856      1619.5118     -19364.663      12.729706      664069.98    
    991600   302.32611     -25716.716      1526.8424     -19384.799     -6.7805588      666670.4     
    991700   303.2019      -25742.898      1514.8753     -19409.029     -74.623972      668139.25    
    991800   298.41314     -25723.115      1569.5558     -19410.677     -21.446541      666795.02    
    991900   306.86934     -25792.659      1524.4649     -19390.911      43.267911      663917.39    
    992000   304.9829      -25863.641      1540.2295     -19476.111      21.047722      663974.56    
    992100   294.22603     -25800.326      1534.0289     -19589.963     -31.320595      665671.97    
    992200   298.55287     -25783.704      1502.5898     -19536.01      -77.32591       665746.32    
    992300   299.32417     -25766.3        1560.2438     -19448.694      40.571135      663089.1     
    992400   304.70594     -25895.491      1592.6143     -19459.978      22.23842       662061.6     
    992500   296.58542     -25772.805      1511.5917     -19547.38       28.556766      663667.71    
    992600   293.69214     -25795.089      1539.3635     -19587.877     -16.919724      664794.05    
    992700   296.14055     -25753.062      1541.7536     -19504.546      59.269602      663755.04    
    992800   302.48225     -25810.978      1596.9231     -19406.499      5.7350657      663947.03    
    992900   293.95593     -25690.61       1587.9198     -19430.649     -31.460554      666056.8     
    993000   301.08196     -25764.664      1552.6228     -19426.742     -85.834677      666719.12    
    993100   304.4747      -25782.237      1542.9947     -19400.019     -12.74353       665022.62    
    993200   302.07139     -25727.292      1532.5383     -19393.728      52.426269      664140.75    
    993300   299.74267     -25812.413      1556.9998     -19491.399     -19.340705      665179.95    
    993400   295.2845      -25772.031      1493.762      -19585.112     -0.56573806     665494.18    
    993500   298.9325      -25881.785      1555.3637     -19575.284     -10.059561      663997.04    
    993600   303.17433     -25822.01       1533.1213     -19470.334      64.722501      662329.85    
    993700   303.9322      -25807.186      1539.1115     -19437.473      56.660716      663548.44    
    993800   294.79823     -25746.413      1503.9756     -19557.009     -33.819978      667052.3     
    993900   292.59764     -25769.753      1495.3922     -19623.908     -106.55827      667386.18    
    994000   302.00007     -25806.468      1491.1833     -19515.393      47.567073      662967.9     
    994100   306.93656     -25852.06       1500.5687     -19473.14       45.739821      661669.09    
    994200   297.16966     -25774.307      1511.0299     -19540.158      47.297153      663864.36    
    994300   297.27619     -25831.863      1509.596      -19597.455     -60.489246      665408.79    
    994400   297.06938     -25788.593      1563.2387     -19503.828     -13.565267      664524.65    
    994500   300.72526     -25714.232      1524.6049     -19409.996      32.389628      663760.18    
    994600   302.54441     -25857.098      1573.4736     -19475.08      -15.136967      663473.8     
    994700   296.58112     -25819.047      1537.5264     -19567.756     -16.64789       663880.13    
    994800   294.8299      -25804.821      1544.0398     -19574.85      -13.690687      664173.92    
    994900   301.59287     -25846.782      1576.7967     -19476.565     -1.7821704      663790.28    
    995000   301.28457     -25707.255      1544.5738     -19374.161      41.202347      664063.8     
    995100   296.87841     -25653.271      1542.7844     -19391.996      32.391706      665714.19    
    995200   297.85614     -25703.18       1543.8217     -19425.328     -34.97083       666419.48    
    995300   300.15966     -25776.852      1572.0168     -19434.194     -20.728627      664961.3     
    995400   303.61842     -25812.781      1566.8867     -19420.28       39.336865      662276.47    
    995500   301.59699     -25826.867      1512.9785     -19520.403      55.495904      661914.88    
    995600   295.1683      -25844.396      1530.3343     -19622.751     -5.0948901      663015.97    
    995700   295.46592     -25870.277      1548.287      -19625.949     -58.263753      662633.05    
    995800   300.66197     -25876.92       1552.9811     -19545.314      49.117168      660821.11    
    995900   303.21366     -25817.097      1521.4949     -19476.421      47.295058      661409.16    
    996000   301.00125     -25735.672      1528.0044     -19423.65      -9.9523592      664427.89    
    996100   300.5955      -25610.186      1514.6116     -19318.006      7.4257765      666933.29    
    996200   305.54436     -25720.008      1574.1292     -19289.655     -47.310992      667181.49    
    996300   298.75904     -25654.964      1540.9936     -19365.591     -6.3037614      666234.1     
    996400   300.90434     -25742.048      1488.268      -19471.303     -0.77237466     665158.32    
    996500   296.671       -25786.96       1549.7398     -19522.026      5.2627212      664064.04    
    996600   303.31922     -25842.953      1499.7216     -19522.373      16.295072      663306.72    
    996700   298.00705     -25805.036      1543.573      -19525.034     -23.718182      663909.1     
    996800   297.62811     -25760.534      1539.2036     -19490.925      15.894993      664695.67    
    996900   303.96794     -25858.724      1550.5515     -19477.003     -81.900283      664379.66    
    997000   302.98725     -25838.476      1518.0323     -19504.862      39.08427       662934.5     
    997100   295.07603     -25837.61       1500.2303     -19647.535      77.843177      662361.31    
    997200   293.87424     -25862.708      1518.6509     -19673.315     -6.4656324      663566.3     
    997300   298.48447     -25840.092      1520.3231     -19575.752     -13.780916      663487.35    
    997400   301.3267      -25821.858      1499.8037     -19532.865      74.203829      662112.64    
    997500   299.91625     -25829.618      1517.7636     -19545.081      38.785648      662456.62    
    997600   295.14898     -25805.348      1547.6532     -19566.691     -9.5930702      664086.89    
    997700   300.97835     -25824.705      1552.6003     -19488.451     -25.649245      665216.53    
    997800   305.27354     -25786.113      1530.8694     -19403.324      38.279145      665177.45    
    997900   298.98987     -25676.168      1505.5844     -19418.534      14.31481       666276.74    
    998000   302.82364     -25749.533      1492.3622     -19444.189     -61.897235      667176.75    
    998100   301.92339     -25724.935      1498.935      -19427.326      3.7861374      665592.87    
    998200   303.49782     -25758.31       1531.0117     -19403.601      50.339339      663232.15    
    998300   303.61611     -25845.376      1497.0069     -19522.791      4.2359214      663257.37    
    998400   293.72217     -25818.414      1552.2965     -19597.792     -58.640212      664244.67    
    998500   299.45073     -25811.324      1487.588      -19564.362      34.090796      663952.78    
    998600   299.69974     -25756.6        1487.073      -19506.195      17.229472      664211.99    
    998700   300.6756      -25798.912      1529.257      -19490.813     -9.8393589      664984.14    
    998800   301.85914     -25815.529      1513.706      -19504.171     -10.910514      664619.43    
    998900   295.2109      -25752.403      1524.0855     -19536.33       40.165228      663778.15    
    999000   294.77029     -25782.133      1539.1981     -19557.95       23.657208      663345.77    
    999100   300.71172     -25904.437      1585.8473     -19539.174     -30.675066      663279.95    
    999200   303.0581      -25900.36       1537.2492     -19546.402     -31.865283      663255.96    
    999300   302.50901     -25938.749      1516.0953     -19614.673     -6.7916449      662635.23    
    999400   302.96549     -25982.202      1462.4749     -19704.49      -27.697371      661769.32    
    999500   297.69166     -25975.903      1534.2898     -19710.197     -22.473153      661217       
    999600   301.92717     -25883.697      1505.6486     -19579.315      37.328824      661278.66    
    999700   302.77875     -25886.633      1527.9544     -19546.41      -11.505157      662872.42    
    999800   301.53059     -25855.224      1486.1789     -19576.615     -38.709488      664563.72    
    999900   297.68694     -25839.002      1519.1723     -19588.489     -21.008368      663643.18    
   1000000   303.72259     -25911.254      1533.592      -19550.393     -12.008637      661763.69    
   1000100   302.90001     -25847.328      1531.988      -19501.145      67.31656       661498.4     
   1000200   300.91584     -25794.19       1508.5908     -19502.939      18.717411      664527.59    
   1000300   295.88366     -25750.529      1501.8735     -19545.975     -66.279943      666963.82    
   1000400   296.46013     -25799.842      1557.8805     -19530.119     -48.046176      665233.97    
   1000500   304.40584     -25850.461      1571.6456     -19440.687      33.100405      662257.34    
   1000600   302.12412     -25853.973      1546.0539     -19506.055      41.318758      661958.21    
   1000700   295.47712     -25850.364      1531.1203     -19623.025      14.711413      662851.62    
   1000800   299.62414     -25853.512      1468.6041     -19622.778     -20.25171       664089.92    
   1000900   299.92417     -25850.354      1532.5771     -19550.878     -75.062259      664332.26    
   1001000   305.58019     -25846.928      1511.2189     -19478.915      17.945661      663112.96    
   1001100   303.32087     -25859.593      1532.885      -19505.823      19.497565      663646.01    
   1001200   298.29041     -25827.118      1514.0527     -19572.133     -34.803866      664939.04    
   1001300   298.63978     -25834.359      1486.4148     -19601.459      6.9270704      664730.32    
   1001400   303.46319     -25836.4        1542.3489     -19470.904      25.663739      664150.94    
   1001500   302.45773     -25781.273      1567.8315     -19406.275      17.291836      664657.17    
   1001600   298.42398     -25742.166      1543.8991     -19455.212     -19.150545      665877.47    
   1001700   297.52108     -25785.463      1536.206      -19520.552     -16.92968       665455.4     
   1001800   296.36246     -25821.876      1505.6961     -19605.89       9.7043567      663782.19    
   1001900   292.73421     -25889.477      1527.3696     -19709.484      60.501676      661408.53    
   1002000   299.43108     -26034.887      1529.2743     -19746.551      18.495605      660649.9     
   1002100   304.14523     -26014.088      1535.0559     -19645.046     -38.88575       661371.32    
   1002200   297.03517     -25816.276      1555.1156     -19540.179      50.650197      663466.35    
   1002300   299.17481     -25766.951      1521.2527     -19490.71      -50.137794      666163.81    
   1002400   302.72624     -25735.405      1502.1753     -19421.796     -7.4646415      666910.27    
   1002500   300.75455     -25705.441      1537.2923     -19388.052     -0.26426438     666708.55    
   1002600   305.5463      -25747.609      1505.8985     -19385.456     -3.5820471      665345.89    
   1002700   299.67013     -25874.192      1580.299      -19531.033      16.391915      663418.38    
   1002800   299.27158     -25881.601      1489.138      -19635.936      40.731166      662268.43    
   1002900   299.83108     -25982.469      1522.5058     -19694.545     -9.4471064      661098.3     
   1003000   299.15075     -25958.195      1535.8061     -19667.783      39.945779      660677.21    
   1003100   299.61156     -25860.056      1532.7664     -19565.359      18.373142      662633.01    
   1003200   299.73618     -25785.409      1519.843      -19501.655     -19.980778      664471.56    
   1003300   306.31819     -25854.384      1485.9372     -19499.924     -18.931594      664061.41    
   1003400   302.65554     -25873.139      1526.5265     -19536.302      47.19211       662315.77    
   1003500   301.52149     -25866.219      1488.884      -19585.049      52.992421      662078.46    
   1003600   297.15222     -25871.281      1550.6825     -19597.757     -31.276608      663621.43    
   1003700   303.1895      -25890.789      1506.5036     -19565.489     -36.487106      664182.86    
   1003800   301.36766     -25883.635      1524.9766     -19568.817      13.17442       662251.02    
   1003900   302.07273     -26002.672      1540.2507     -19661.374      29.668831      660429.01    
   1004000   297.21614     -25984.836      1493.9295     -19767.049      24.418691      660554.58    
   1004100   302.08422     -26084.895      1493.499      -19790.166     -22.296648      661308.89    
   1004200   298.66048     -26048.306      1587.2333     -19714.259     -40.202276      661029.78    
   1004300   301.34507     -26001.888      1591.7975     -19620.608      21.976943      660169.56    
   1004400   306.62565     -25984.69       1463.7127     -19647.568      15.472009      660973.16    
   1004500   300.74924     -25936.381      1477.0355     -19679.333     -41.917485      662503.42    
   1004600   299.41129     -25987.466      1560.4478     -19668.272     -39.956463      662029.29    
   1004700   306.08109     -25957.698      1505.2823     -19587.661      68.813197      660742.27    
   1004800   307.9113      -25913.179      1535.0133     -19484.322      48.49429       662067.01    
   1004900   300.32384     -25840.268      1511.4149     -19555.602     -64.343884      665641.28    
   1005000   298.64034     -25899.523      1491.0232     -19662.006     -129.52924      666696.37    
   1005100   302.75931     -25959.471      1497.7572     -19649.754      8.0630801      662128.81    
   1005121   295.63569     -25910.447      1566.8869     -19644.821      71.673417      660833.12    
Loop time of 1641 on 8 procs for 1000000 steps with 5333 atoms

Performance: 1053.016 ns/day, 0.023 hours/ns, 609.384 timesteps/s
100.0% CPU use with 8 MPI tasks x 1 OpenMP threads

MPI task timing breakdown:
Section |  min time  |  avg time  |  max time  |%varavg| %total
---------------------------------------------------------------
Pair    | 608.83     | 623.98     | 637.02     |  34.6 | 38.02
Bond    | 20.234     | 21         | 22.175     |  13.4 |  1.28
Kspace  | 650.01     | 664.35     | 680.38     |  35.7 | 40.48
Neigh   | 116.55     | 116.82     | 117.01     |   1.3 |  7.12
Comm    | 66.244     | 92.948     | 106.79     | 153.1 |  5.66
Output  | 0.45991    | 0.47082    | 0.53844    |   3.7 |  0.03
Modify  | 98.808     | 114.03     | 144.09     | 153.6 |  6.95
Other   |            | 7.395      |            |       |  0.45

Nlocal:        666.625 ave         674 max         659 min
Histogram: 1 0 1 1 0 1 2 1 0 1
Nghost:        1886.12 ave        1908 max        1875 min
Histogram: 3 1 1 0 0 1 1 0 0 1
Neighs:        20565.9 ave       20774 max       20276 min
Histogram: 2 0 0 0 0 1 2 1 0 2

Total # of neighbors = 164527
Ave neighs/atom = 30.850741
Ave special neighs/atom = 2.2501406
Neighbor list builds = 100000
Dangerous builds = 100000
unfix fxnpt1

write_data end.data
System init for write_data ...
PPPM initialization ...
  using 12-bit tables for long-range coulomb (src/kspace.cpp:342)
  G vector (1/distance) = 0.16094687
  grid = 18 18 18
  stencil order = 4
  estimated absolute RMS force accuracy = 0.0027387087
  estimated relative force accuracy = 8.24754e-06
  using double precision KISS FFT
  3d grid and FFT values/proc = 2744 972
Generated 0 of 6 mixed pair_coeff terms from geometric mixing rule
Total wall time: 0:27:32
