units real
dimension 3
boundary p p p
neighbor 0.3 bin
neigh_modify every 1 check yes

atom_style full
bond_style harmonic
angle_style cosine/squared
special_bonds lj/coul 0 1 1


region     box      block 0 87 0 87 0 87
create_box 4 box bond/types 1 angle/types 1 	extra/special/per/atom 3 	extra/bond/per/atom 2 	extra/angle/per/atom 2
Created orthogonal box = (0 0 0) to (87 87 87)
  2 by 2 by 2 MPI processor grid


molecule 1 sds.txt
Read molecule template 1:
  1 molecules
  0 fragments
  4 atoms with max type 2
  3 bonds with max type 1
  2 angles with max type 1
  0 dihedrals with max type 0
  0 impropers with max type 0
# 1 - Qa (SDS-H)
# 2 - C1
# 3 - Qd (Na)
# 4 - W

create_atoms     0 random 1000 123458 box mol 1 128
Created 4000 atoms
  using lattice units in orthogonal box = (0 0 0) to (87 87 87)
  create_atoms CPU = 0.002 seconds
create_atoms     3 random 1000 134478 box
Created 1000 atoms
  using lattice units in orthogonal box = (0 0 0) to (87 87 87)
  create_atoms CPU = 0.000 seconds
# create_atoms     4 random 333 13348 box
create_atoms     4 random 905 13348 box
Created 905 atoms
  using lattice units in orthogonal box = (0 0 0) to (87 87 87)
  create_atoms CPU = 0.000 seconds

mass 1 96
mass 2 56
mass 3 23
mass 4 72

pair_style hybrid/overlay lj/gromacs 9 12 coul/long 12

kspace_style pppm 1.0e-5
kspace_modify order 4

dielectric 80

set type 1 charge  -1
Setting atom values ...
  1000 settings made for charge
set type 3 charge  1
Setting atom values ...
  1000 settings made for charge
pair_coeff 1*3 1*3 coul/long

# In kcal/mol and Angstrom
pair_coeff 1 1 lj/gromacs  1.19 4.7
pair_coeff 1 2 lj/gromacs  0.48 6.2
pair_coeff 1 3 lj/gromacs  1.33 4.7
pair_coeff 1 4 lj/gromacs  1.33 4.7
pair_coeff 2 2 lj/gromacs  0.84 4.7
pair_coeff 2 3 lj/gromacs  0.48 6.2
pair_coeff 2 4 lj/gromacs  0.48 4.7
pair_coeff 3 3 lj/gromacs  1.19 4.7
pair_coeff 3 4 lj/gromacs  1.33 4.7
pair_coeff 4 4 lj/gromacs  1.19 4.7

bond_coeff 1 2.98 4.7
angle_coeff 1 5.97 180


write_data initial-mass.data
System init for write_data ...
PPPM initialization ...
  using 12-bit tables for long-range coulomb (src/kspace.cpp:342)
  G vector (1/distance) = 0.15289546
  grid = 16 16 16
  stencil order = 4
  estimated absolute RMS force accuracy = 0.003752022
  estimated relative force accuracy = 1.1299103e-05
  using double precision KISS FFT
  3d grid and FFT values/proc = 2197 512
Generated 0 of 6 mixed pair_coeff terms from geometric mixing rule
Neighbor list info ...
  update every 1 steps, delay 10 steps, check yes
  max neighbors/atom: 2000, page size: 100000
  master list distance cutoff = 12.3
  ghost atom cutoff = 12.3
  binsize = 6.15, bins = 15 15 15
  2 neighbor lists, perpetual/occasional/extra = 2 0 0
  (1) pair lj/gromacs, perpetual
      attributes: half, newton on
      pair build: half/bin/newton
      stencil: half/bin/3d
      bin: standard
  (2) pair coul/long, perpetual, skip from (1)
      attributes: half, newton on
      pair build: skip
      stencil: none
      bin: none
dump        mydump  all atom 5000 sds-mass.lammpstrj


velocity all create 450 666 dist gaussian
velocity all zero linear

min_style cg
minimize 0 0 10000 100000
WARNING: Using 'neigh_modify every 1 delay 0 check yes' setting during minimization (src/min.cpp:187)
PPPM initialization ...
  using 12-bit tables for long-range coulomb (src/kspace.cpp:342)
  G vector (1/distance) = 0.15289546
  grid = 16 16 16
  stencil order = 4
  estimated absolute RMS force accuracy = 0.003752022
  estimated relative force accuracy = 1.1299103e-05
  using double precision KISS FFT
  3d grid and FFT values/proc = 2197 512
Generated 0 of 6 mixed pair_coeff terms from geometric mixing rule
Per MPI rank memory allocation (min/avg/max) = 10.37 | 10.38 | 10.4 Mbytes
   Step          Temp          E_pair         E_mol          TotEng         Press     
         0   450            3.2794779e+17  1038.2435      3.2794779e+17  1.3659382e+17
      6273   450           -30761.469      1512.5203     -21329.532      2266.8513    
Loop time of 14.4768 on 8 procs for 6273 steps with 5905 atoms

100.0% CPU use with 8 MPI tasks x 1 OpenMP threads

Minimization stats:
  Stopping criterion = linesearch alpha is zero
  Energy initial, next-to-last, final = 
    3.279477913917e+17  -29248.9484452724  -29248.9484452724
  Force two-norm initial, final = 1.539792e+19 0.64798341
  Force max component initial, final = 7.2167775e+18 0.11275082
  Final line search alpha, max atom move = 2.2755927e-08 2.5657493e-09
  Iterations, force evaluations = 6273 9519

MPI task timing breakdown:
Section |  min time  |  avg time  |  max time  |%varavg| %total
---------------------------------------------------------------
Pair    | 7.9785     | 8.1277     | 8.3307     |   3.7 | 56.14
Bond    | 0.12955    | 0.1363     | 0.14315    |   1.2 |  0.94
Kspace  | 2.474      | 2.6847     | 2.8404     |   6.7 | 18.54
Neigh   | 2.662      | 2.6675     | 2.6708     |   0.2 | 18.43
Comm    | 0.60046    | 0.60377    | 0.60987    |   0.4 |  4.17
Output  | 0.00048058 | 0.00055283 | 0.00062476 |   0.0 |  0.00
Modify  | 0          | 0          | 0          |   0.0 |  0.00
Other   |            | 0.2564     |            |       |  1.77

Nlocal:        738.125 ave         744 max         732 min
Histogram: 1 1 0 0 1 2 1 0 1 1
Nghost:        2097.25 ave        2112 max        2084 min
Histogram: 2 0 0 1 1 0 2 1 0 1
Neighs:          25022 ave       25516 max       24530 min
Histogram: 1 1 0 2 0 1 0 2 0 1

Total # of neighbors = 200176
Ave neighs/atom = 33.899407
Ave special neighs/atom = 2.0321761
Neighbor list builds = 2828
Dangerous builds = 26

thermo              100
timestep 20

fix mom all momentum 1000 linear 1 1 1

fix fxnpt1 all npt temp 450 450 $(100*dt) iso 1 1 $(1000*dt) mtk yes
fix fxnpt1 all npt temp 450 450 2000 iso 1 1 $(1000*dt) mtk yes
fix fxnpt1 all npt temp 450 450 2000 iso 1 1 20000 mtk yes
run 1000000
PPPM initialization ...
  using 12-bit tables for long-range coulomb (src/kspace.cpp:342)
  G vector (1/distance) = 0.15289546
  grid = 16 16 16
  stencil order = 4
  estimated absolute RMS force accuracy = 0.003752022
  estimated relative force accuracy = 1.1299103e-05
  using double precision KISS FFT
  3d grid and FFT values/proc = 2197 512
Generated 0 of 6 mixed pair_coeff terms from geometric mixing rule
Per MPI rank memory allocation (min/avg/max) = 9.248 | 9.264 | 9.272 Mbytes
   Step          Temp          E_pair         E_mol          TotEng         Press          Volume    
      6273   450           -30761.469      1512.5203     -21329.532      2266.8513      658503       
      6300   222.45786     -27728.76       2402.3235     -21411.467      3287.6403      663030.35    
      6400   217.324       -27809.77       1932.9344     -22052.215      1527.7294      701727.06    
      6500   224.71188     -27374.847      1796.0802     -21624.129      824.77975      728016.75    
      6600   244.53688     -26879.26       1769.482      -20806.246      601.56109      745593.06    
      6700   270.05912     -26314.709      1757.2954     -19804.723      487.07265      760445.82    
      6800   296.06817     -25739.737      1860.2382     -18669.084      442.90328      773895.45    
      6900   322.14414     -25132.041      2007.1789     -17455.543      450.17515      787510.06    
      7000   361.0383      -24580.565      2022.2002     -16204.559      405.59115      801475.91    
      7100   386.66443     -23924.24       2153.8523     -14965.595      442.23364      816038.19    
      7200   412.78886     -23275.894      2196.7507     -13814.595      428.42678      831241.41    
      7300   435.40708     -22764.563      2291.0407     -12810.923      452.84542      846448.92    
      7400   449.03923     -22234.884      2321.1574     -12011.218      415.66013      861858.45    
      7500   461.51419     -21843.927      2298.7962     -11423.08       348.95739      876704.44    
      7600   457.32558     -21553.282      2346.7279     -11158.218      279.59554      890362.5     
      7700   448.80898     -21417.847      2380.1298     -11139.261      191.89746      902478.42    
      7800   445.19129     -21336.851      2337.6964     -11164.366      92.142122      912593.64    
      7900   448.89746     -21160.1        2189.0725     -11071.015      122.01981      920319.54    
      8000   450.98789     -21028.688      2241.616      -10850.271      92.031396      927312.08    
      8100   453.29373     -20848.065      2271.7089     -10598.974      69.112465      933457.5     
      8200   458.98897     -20833.295      2245.3374     -10510.347      67.367141      938480.63    
      8300   454.92946     -20797.272      2211.8682     -10579.236      64.18412       943020.75    
      8400   446.57992     -20699.96       2227.5602     -10613.173      31.266301      947213.15    
      8500   452.65        -20615.62       2170.7186     -10478.849      29.824518      949668.8     
      8600   448.38805     -20508.427      2310.3979     -10306.981      54.065241      951634.43    
      8700   454.71015     -20532.938      2245.5786     -10285.051      33.914216      953886.61    
      8800   447.84004     -20537.367      2239.8422     -10416.121     -21.586861      955950.48    
      8900   444.00296     -20580.626      2281.4499     -10485.3        6.3743155      957100.31    
      9000   447.54102     -20578.819      2217.4963     -10485.181     -41.30588       957953.32    
      9100   446.4458      -20481.932      2225.1663     -10399.899      25.621834      957316.75    
      9200   453.39895     -20584.956      2318.0882     -10287.634     -12.741394      957634.37    
      9300   445.9         -20516.54       2348.3066     -10320.972      28.709577      958688.1     
      9400   453.33701     -20651.674      2242.765      -10430.766     -59.606136      958977.3     
      9500   451.80994     -20609.943      2129.8498     -10528.824      1.381211       957818.5     
      9600   446.11641     -20722.429      2270.7708     -10600.588      26.135978      956467.68    
      9700   450.22538     -20710.243      2161.6798     -10625.181     -13.103189      955498.51    
      9800   444.37757     -20670.297      2210.7163     -10639.112     -41.851345      953874       
      9900   449.55444     -20695.97       2213.925      -10570.471     -16.574468      950956.85    
     10000   450.92043     -20783.473      2311.6073     -10536.251     -7.1256573      947957.65    
     10100   450.94538     -20818.126      2247.5442     -10634.528      11.027815      945662.2     
     10200   446.13246     -20875.931      2216.9346     -10807.643      16.36395       943956.06    
     10300   448.94555     -21072.321      2202.4328     -10969.029     -52.582472      941311.9     
     10400   447.60419     -21082.046      2176.3188     -11028.475      19.683374      938063.7     
     10500   446.25006     -21070.385      2192.0051     -11024.957      48.886433      936307.66    
     10600   456.85774     -21152.812      2176.7232     -10935.985     -26.17493       935622.11    
     10700   452.1278      -21066.219      2241.3554     -10868.001     -17.442182      935304.18    
     10800   453.31788     -21100.421      2254.8257     -10867.789     -53.495886      935755.17    
     10900   454.22324     -21134.437      2158.7893     -10981.908     -24.747682      936558.12    
     11000   446.80793     -21156.686      2196.2948     -11097.152     -28.856186      937519.59    
     11100   448.07599     -21141.564      2124.8794     -11131.128     -18.385792      937422.86    
     11200   451.47165     -21239.805      2213.7937     -11080.696     -20.682697      935108.33    
     11300   444.57721     -21140.859      2318.9428     -10997.934     -27.265004      932559.54    
     11400   455.15994     -21285.372      2339.2329     -10935.915      19.571386      930489.37    
     11500   449.10717     -21264          2317.6855     -11042.611      68.113781      929205.24    
     11600   445.11938     -21309.854      2286.5192     -11189.811      28.027664      930149.25    
     11700   443.63297     -21319.357      2252.6102     -11259.383     -9.7318009      931999.9     
     11800   444.84822     -21242.465      2206.1254     -11207.588     -73.546546      933079.41    
     11900   457.75732     -21291.909      2191.2682     -11044.706     -29.6211        932111.57    
     12000   458.66558     -21212.706      2199.8708     -10940.917      57.569016      931068.3     
     12100   455.42552     -21324.792      2214.3228     -11095.571     -23.931811      931893.94    
     12200   446.45711     -21374.753      2225.8788     -11291.808     -43.557815      933251.5     
     12300   441.45854     -21317.298      2188.3306     -11359.87      -21.681503      933763.61    
     12400   443.85976     -21259.685      2256.4042     -11191.925     -11.866918      932782.95    
     12500   457.0218      -21250.114      2253.4734     -10953.65       13.3029        931199.29    
     12600   453.78976     -21203.565      2314.0745     -10903.38       22.79808       931521.22    
     12700   448.98139     -21312.469      2282.8952     -11128.084     -47.67135       933545.54    
     12800   436.59398     -21205.11       2226.8224     -11294.8       -21.823043      934257.35    
     12900   443.05281     -21160.984      2167.8972     -11195.932     -2.3857486      932718.01    
     13000   455.23        -21302.749      2296.0448     -10995.247      36.798326      929462.27    
     13100   458.14162     -21354.94       2255.8342     -11036.408      8.4815653      928089.68    
     13200   443.90812     -21308.445      2182.0169     -11314.221     -24.06791       928464.88    
     13300   443.41375     -21478.085      2154.9956     -11519.583     -69.654415      926821.84    
     13400   446.34057     -21547.895      2195.4013     -11497.479      31.552498      922366.96    
     13500   449.01656     -21553.787      2278.3748     -11373.303      21.684619      918438.39    
     13600   455.73949     -21620.312      2269.7479     -11330.14       83.283304      916469.2     
     13700   449.8546      -21612.023      2204.3584     -11490.807      29.659715      918004.69    
     13800   447.72135     -21704.819      2193.3961     -11632.108     -22.662036      920193.3     
     13900   449.61754     -21627.442      2139.3055     -11575.451     -57.949955      921336.8     
     14000   448.20615     -21602.998      2311.3478     -11403.803      35.498321      920396.97    
     14100   450.33427     -21413.894      2243.998      -11244.597      35.31979       920098.67    
     14200   450.76065     -21441.752      2268.021      -11240.928      12.450883      920917.59    
     14300   449.27943     -21524.939      2268.766      -11349.438     -55.201342      922551.79    
     14400   451.42541     -21528.046      2187.2231     -11396.321     -49.987178      922509.07    
     14500   447.5165      -21464.72       2213.3033     -11375.707      0.63401892     921201.83    
     14600   453.90357     -21566.222      2223.7388     -11354.369     -16.200015      920525.99    
     14700   457.79613     -21658.208      2213.7751     -11387.815     -10.779645      920578.23    
     14800   445.17918     -21500.299      2174.1203     -11491.602     -8.9857697      920644.17    
     14900   444.16894     -21563.431      2235.1026     -11511.531      35.620463      920922.52    
     15000   452.52435     -21540.702      2166.0863     -11410.774     -7.1744736      922615.55    
     15100   453.80022     -21400.114      2144.2538     -11269.565     -5.8924455      924559.6     
     15200   454.157       -21473.683      2334.3801     -11146.729     -41.295268      926059.46    
     15300   457.04587     -21366.773      2228.3657     -11094.993      20.655097      926898.91    
     15400   450.77872     -21372.231      2231.0322     -11208.078      6.7486321      927849.24    
     15500   445.60482     -21478.02       2238.5607     -11397.392     -67.265201      927771.94    
     15600   441.73794     -21466.839      2228.9636     -11463.861      18.576958      924922.56    
     15700   455.95868     -21612.915      2193.0839     -11395.549      13.155999      921082.09    
     15800   456.24594     -21615.416      2209.1384     -11376.941     -28.77698       918354.56    
     15900   451.85142     -21695.232      2247.3224     -11495.911      6.0324063      916172.1     
     16000   442.38155     -21660.629      2209.7417     -11665.546     -11.528751      915490.13    
     16100   447.2089      -21683.151      2142.8645     -11669.99       23.232319      914275.24    
     16200   451.30215     -21748.009      2271.8438     -11533.833     -7.8669974      913445.14    
     16300   454.87423     -21705.334      2245.095      -11455.042      7.8296841      913116.04    
     16400   446.63871     -21574.837      2241.4599     -11473.115      3.1050544      914069.95    
     16500   451.51249     -21671.824      2198.5659     -11527.225      0.42915482     915612.41    
     16600   448.86242     -21626.438      2180.5993     -11546.442     -12.741907      917191.46    
     16700   445.60571     -21619.468      2295.7457     -11481.64      -27.696686      918138.7     
     16800   451.32117     -21498.149      2180.4191     -11375.063      53.731568      918166.44    
     16900   457.25833     -21607.743      2233.7737     -11326.816      19.382317      920183.74    
     17000   448.66314     -21476.818      2176.7442     -11404.185      8.129806       923407.19    
     17100   444.75468     -21536.629      2241.1786     -11468.345     -103.00225      925275.69    
     17200   452.2539      -21509.415      2169.8339     -11380.5        6.8464488      924204.88    
     17300   450.59525     -21482.208      2227.8421     -11324.474     -12.859238      922339.49    
     17400   449.03782     -21486.812      2238.1423     -11346.186      3.4095869      920600.49    
     17500   449.21013     -21481.765      2190.5721     -11385.678      26.810152      918627.29    
     17600   446.08324     -21536.96       2229.3626     -11457.111      43.070608      917138.78    
     17700   443.07259     -21598.103      2235.0213     -11565.579      14.3742        917086.71    
     17800   445.53135     -21640.118      2192.7863     -11606.558     -2.1298962      917444.67    
     17900   453.3107      -21692.87       2210.0755     -11505.114     -29.633275      916264.13    
     18000   447.06326     -21599.105      2334.2182     -11397.153      58.494362      914699.17    
     18100   460.29189     -21813.518      2255.0752     -11457.903     -38.641107      914293.95    
     18200   450.69841     -21731.276      2198.5117     -11601.057      10.987705      914617.2     
     18300   448.54012     -21728.847      2184.3823     -11650.74       10.214081      916251.3     
     18400   444.47852     -21690.669      2234.2939     -11634.129     -36.502192      918446.78    
     18500   450.43845     -21631.723      2200.451      -11504.14      -39.295702      919241.86    
     18600   452.55762     -21672.818      2271.9941     -11436.397      8.6404106      918561.99    
     18700   450.15696     -21651.345      2242.0092     -11487.158     -12.691783      918611.26    
     18800   440.24735     -21562.39       2184.5801     -11630.028      32.998245      919001.66    
     18900   444.41545     -21619.6        2129.8868     -11668.578      3.0558361      919484.05    
     19000   442.61312     -21535.487      2262.6608     -11483.409     -28.178835      919528.99    
     19100   450.18161     -21483.06       2195.8909     -11364.557      75.185164      919255.62    
     19200   449.76672     -21511.759      2247.474      -11348.974      71.744385      920770.54    
     19300   442.97904     -21400.197      2188.4198     -11415.92      -9.5169744      923152.45    
     19400   447.67453     -21528.873      2217.2789     -11433.103     -34.442454      924261.98    
     19500   452.98244     -21576.324      2307.5981     -11296.822     -65.163146      923604.99    
     19600   457.1334      -21521.702      2238.6179     -11238.129      0.45902336     922232.31    
     19700   452.70465     -21499.133      2160.6936     -11371.425     -4.1623054      921288.06    
     19800   442.7508      -21564.182      2216.4289     -11555.914     -3.0861046      919175.33    
     19900   447.46963     -21711.942      2261.6983     -11575.358      18.963615      915535.02    
     20000   452.57724     -21799.315      2211.0306     -11623.513      13.353108      911263.3     
     20100   453.90826     -21900.488      2171.0817     -11741.21       0.74271305     907676.97    
     20200   447.98768     -21985.07       2281.7742     -11819.294     -7.8568454      905246.63    
     20300   448.00836     -22000.868      2275.6856     -11840.817      68.659283      903974.03    
     20400   451.09797     -21977.431      2163.9137     -11874.778      16.945697      904921.79    
     20500   444.95967     -21870.285      2182.4131     -11857.159      23.478895      907155.44    
     20600   453.54149     -21891.249      2182.9582     -11726.549      10.036631      908430.37    
     20700   459.37463     -21964.102      2194.2341     -11685.47      -19.660406      909565.06    
     20800   453.16897     -21850.476      2177.4525     -11697.838      35.584961      911233.4     
     20900   448.34858     -21876.694      2255.1806     -11731.16      -31.622641      913542.82    
     21000   451.70081     -21830.308      2205.0188     -11675.941     -27.449366      914600.35    
     21100   447.98475     -21633.155      2199.3962     -11549.808      26.897899      914689.13    
     21200   451.31039     -21627.646      2217.8039     -11467.365      55.59483       915517.56    
     21300   450.59627     -21686.244      2277.2906     -11479.044     -53.48566       917566.48    
     21400   446.54291     -21642.381      2206.9525     -11576.852      29.973661      919732.38    
     21500   437.85884     -21567.002      2156.1843     -11705.07      -35.443479      921619.62    
     21600   445.80623     -21629.521      2222.846      -11561.064     -9.4124914      920316.14    
     21700   453.16072     -21628.394      2201.9531     -11451.4        14.590904      917482.03    
     21800   449.4253      -21689.179      2341.602      -11438.275     -3.6749781      914371.99    
     21900   457.26376     -21705.336      2212.181      -11445.906      37.988644      912355.82    
     22000   453.65438     -21784.958      2139.8704     -11661.359     -10.561716      912595.85    
     22100   447.87998     -21811.991      2147.1467     -11782.738     -11.374465      913056.23    
     22200   440.33853     -21715.722      2282.7791     -11683.557      13.28269       912927.28    
     22300   449.78485     -21714.541      2205.9924     -11592.918     -1.6041768      912932.04    
     22400   451.18509     -21758.649      2219.987      -11598.39       15.455736      912471.34    
     22500   449.80233     -21819.719      2207.5777     -11696.204      7.3502698      912646.12    
     22600   442.5771      -21864.918      2185.8605     -11890.275     -11.965778      912840.71    
     22700   438.13175     -21854.655      2165.8299     -11978.275     -9.0147571      912109.38    
     22800   449.47951     -21813.337      2170.7399     -11732.341     -13.610765      910664.57    
     22900   444.98512     -21715.206      2215.0076     -11669.038      53.999006      909479.8     
     23000   450.91791     -21775.283      2242.5702     -11597.143      44.83038       910965.97    
     23100   452.12169     -21689.273      2182.3331     -11550.185      9.0503152      915363.45    
     23200   447.31527     -21489.226      2179.4226     -11437.635      0.11787845     921407.22    
     23300   448.35979     -21532.223      2347.6265     -11294.046     -21.153491      926828.08    
     23400   449.98026     -21364.2        2189.9673     -11255.164      0.38271491     930226.66    
     23500   452.94425     -21326.479      2144.094      -11211.154     -4.6051597      931731.41    
     23600   446.18049     -21240.73       2239.7294     -11148.803     -53.503866      931284.7     
     23700   456.12952     -21266.009      2242.0809     -10996.64       71.552983      928766.02    
     23800   455.74782     -21342.867      2248.5336     -11073.763      51.894632      926436.36    
     23900   454.34423     -21545.333      2218.6695     -11330.795      35.614738      924309.26    
     24000   455.34386     -21623.909      2161.0023     -11449.445     -39.287025      921965.75    
     24100   451.57684     -21709.041      2214.0571     -11547.818     -2.7171215      919129.77    
     24200   447.98676     -21689.099      2234.741      -11570.373     -7.5510354      916434.85    
     24300   451.52114     -21663.68       2211.6141     -11505.879      64.950877      913933.17    
     24400   451.0918      -21684.377      2282.8157     -11462.931      31.881035      913263       
     24500   458.92728     -21819.043      2215.3135     -11527.204     -0.1414705      914530.26    
     24600   443.94674     -21713.827      2194.8349     -11706.106      4.9041556      916262.97    
     24700   448.46134     -21760.482      2203.2511     -11664.893     -43.106575      916337.97    
     24800   455.16469     -21713.533      2204.8855     -11498.34       23.204401      914338.62    
     24900   455.90743     -21721.158      2182.3803     -11515.399      30.813504      913046.21    
     25000   453.01094     -21743.662      2154.0323     -11617.225      40.786065      912935.44    
     25100   441.67321     -21678.086      2157.6412     -11747.57       0.79173536     913788.62    
     25200   447.36628     -21811.105      2177.7029     -11760.336     -43.912445      913828.88    
     25300   452.66864     -21699.054      2190.1043     -11542.569      41.729712      912090.08    
     25400   454.5805      -21823.966      2276.0067     -11547.932      0.67232661     911029.01    
     25500   447.7493      -21873.861      2269.7519     -11724.302     -29.95404       911189.5     
     25600   444.11909     -21915.497      2280.3527     -11819.224     -40.709674      911393.41    
     25700   445.2354      -21750.962      2169.0434     -11746.353      15.139177      912463.19    
     25800   454.09855     -21775.752      2231.1962     -11553.011     -18.743723      913340.9     
     25900   443.50253     -21629.471      2248.4831     -11575.919      27.008335      914554.48    
     26000   445.4264      -21646.983      2240.7481     -11567.308      38.644947      915862.96    
     26100   456.45534     -21714.783      2170.3109     -11511.451     -26.808844      917065.75    
     26200   451.7163      -21583.262      2247.9331     -11385.709      16.897248      918170.91    
     26300   454.02726     -21536.728      2222.503      -11323.934      35.434569      920378.62    
     26400   448.8465      -21504.359      2193.4652     -11411.778     -37.411604      923512.79    
     26500   436.98795     -21579.549      2239.5731     -11649.555     -52.066543      924291.22    
     26600   441.00846     -21583.811      2162.7656     -11659.869     -36.457044      921951.37    
     26700   453.93259     -21645.084      2160.7692     -11495.691      29.80375       917682.79    
     26800   451.7062      -21672.844      2252.749      -11470.652      2.374906       914520.61    
     26900   453.81434     -21732.275      2212.3263     -11533.405      16.093761      912792.15    
     27000   447.60114     -21813.321      2219.9654     -11716.156     -10.936308      911813.63    
     27100   443.51577     -21822.959      2203.3799     -11814.277      3.4008911      910591.83    
     27200   443.53351     -21821.111      2290.5354     -11724.962      25.720842      909051.35    
     27300   450.0116      -21711.018      2249.4632     -11541.934      54.416916      908910.74    
     27400   457.20203     -21826.67       2194.758      -11585.75       5.5883986      909864.07    
     27500   447.50337     -21794.407      2198.0496     -11720.879     -24.63495       911722.27    
     27600   447.848       -21855.058      2175.8303     -11797.684     -29.163964      912197.97    
     27700   445.23081     -21791.572      2244.7739     -11711.313     -36.16543       910389.43    
     27800   459.11901     -21850.147      2194.502      -11575.746      14.323835      908117.41    
     27900   454.54749     -21795.751      2172.3382     -11623.966      35.986914      908660.57    
     28000   447.37126     -21710.331      2118.0701     -11719.107      35.800443      912013.31    
     28100   446.63734     -21747.351      2204.097      -11683.017      6.6614012      915715.62    
     28200   448.14634     -21664.56       2174.8164     -11602.949     -61.267386      918140.27    
     28300   456.06833     -21714.78       2186.554      -11502.015     -34.54389       918631.83    
     28400   452.86271     -21753.757      2263.6415     -11520.319     -22.796451      916874.38    
     28500   451.13214     -21802.046      2253.5974     -11609.108     -35.153242      913944.98    
     28600   443.61242     -21816.649      2217.7409     -11791.905      23.247777      910302.43    
     28700   444.40798     -22013.746      2159.2448     -12033.497      13.252006      906014.79    
     28800   450.94457     -22140.895      2178.4469     -12026.408      27.83635       901826.51    
     28900   445.72701     -22031.817      2247.7267     -11939.873      11.639529      900229.95    
     29000   450.62923     -21945.461      2129.0365     -11885.935      55.705145      900251.09    
     29100   448.84395     -22042.892      2222.6481     -11921.173     -5.0957183      901372.39    
     29200   442.12341     -22030.998      2241.7829     -12008.417      21.981882      903049.98    
     29300   444.05504     -21926.023      2165.2497     -11945.981     -5.1220837      904164.34    
     29400   452.98241     -21950.142      2188.703      -11789.536      3.8725659      904671.85    
     29500   453.78635     -21905.625      2196.066      -11723.508      19.122473      906508.25    
     29600   453.43696     -21952.431      2193.3067     -11779.222      1.9279442      908630.59    
     29700   445.06615     -21928.28       2192.3717     -11903.322     -30.846191      910318.7     
     29800   442.3787      -21914.233      2190.2048     -11938.737     -15.879102      911181.81    
     29900   452.66565     -21873.187      2186.8233     -11720.036     -13.69298       911188.69    
     30000   448.91966     -21783.817      2220.9796     -11662.434      67.165625      911268.45    
     30100   447.00148     -21703.13       2150.9545     -11685.529      33.924743      913070.05    
     30200   441.73801     -21764.905      2270.9975     -11719.892     -77.471854      914149.61    
     30300   450.46467     -21724.973      2222.4705     -11574.909     -4.0706716      912370.58    
     30400   455.58765     -21736.808      2183.1529     -11535.904      69.026941      909913.66    
     30500   450.8715      -21873.135      2229.2627     -11709.119      27.914641      908325.32    
     30600   448.17027     -21912.052      2186.5206     -11838.316      27.888676      907322.36    
     30700   445.22809     -21941.017      2222.7892     -11882.791     -7.9714581      906914.21    
     30800   449.19977     -21960.903      2186.1063     -11869.463      33.410039      906415.1     
     30900   452.26762     -21897.416      2185.4474     -11752.645      15.880113      905858.19    
     31000   454.93169     -21894.945      2268.4605     -11620.277      39.297514      906272.7     
     31100   450.68678     -21858.208      2211.3054     -11715.4        7.3164791      907913.13    
     31200   451.03664     -21984.582      2232.1668     -11814.756     -37.861108      909237.62    
     31300   445.9209      -21821.924      2137.6976     -11836.597     -6.7412664      910133.81    
     31400   450.57582     -21862.99       2189.3896     -11744.051      15.615775      909874.92    
     31500   454.1191      -21843.24       2319.305      -11532.028      41.690933      910077.89    
     31600   449.5153      -21810.208      2267.7067     -11631.615     -16.879534      912005.01    
     31700   444.65556     -21771.891      2167.1007     -11779.43      -11.191712      913017.97    
     31800   446.45167     -21855.106      2196.5354     -11801.6       -36.502279      912198.03    
     31900   452.02434     -21852.029      2258.8797     -11638.108     -23.587501      909516.56    
     32000   458.21579     -21976.538      2258.4338     -11654.101      25.568955      906498.85    
     32100   453.26851     -21991.457      2204.9531     -11809.566      43.604604      904352.12    
     32200   455.10096     -22072.858      2154.0731     -11909.598      30.32375       903456.68    
     32300   450.72033     -22054.996      2157.2899     -11965.613     -15.68992       904091.82    
     32400   448.76556     -21989.567      2185.7524     -11906.123      10.970472      904544.46    
     32500   457.09258     -21930.115      2211.6398     -11674.239      15.59563       905234.49    
     32600   452.32122     -21919.075      2277.6603     -11681.148     -54.986869      906975.25    
     32700   452.80866     -21942.05       2202.2452     -11770.96      -23.517073      907613.28    
     32800   445.47043     -21961.291      2199.6025     -11921.987     -0.27794831     907842.98    
     32900   448.25372     -22036.249      2150.6164     -11996.949     -3.0624736      906784.94    
     33000   444.91415     -21893.62       2246.9449     -11816.763      58.076002      904743.26    
     33100   447.65942     -21928.907      2311.3132     -11739.369      21.421585      904742.55    
     33200   454.4777      -21999.084      2187.0658     -11813.801      46.622152      906391.12    
     33300   445.33465     -21976.198      2149.3718     -11989.514     -9.5784023      909457.09    
     33400   439.86214     -21921.481      2153.2784     -12027.2        8.4030535      911508.32    
     33500   444.70789     -21879.671      2196.7726     -11856.616     -40.471544      912061.92    
     33600   448.40289     -21873.284      2189.9149     -11792.06       31.815298      911169.77    
     33700   455.46593     -21891.418      2170.0391     -11705.769      16.397466      910993.97    
     33800   452.33722     -21858.495      2222.6534     -11675.294     -2.9129913      910686.41    
     33900   457.47738     -21814.606      2132.5683     -11631.03       32.494861      910152.24    
     34000   449.5937      -21840.556      2244.9541     -11683.336     -13.852135      910672.35    
     34100   445.48347     -21879.866      2198.6455     -11841.289     -43.350499      911398.05    
     34200   441.68076     -21822.986      2165.3502     -11884.627     -16.35886       910820.97    
     34300   456.43379     -21917.454      2190.8444     -11693.967     -18.499763      909033.46    
     34400   454.63558     -21927.967      2238.6752     -11688.296      37.337681      907040.44    
     34500   447.93626     -21902.455      2187.7984     -11831.56       16.034765      906917.58    
     34600   446.9106      -21952.851      2201.6086     -11886.196      3.0446804      908030.38    
     34700   451.77153     -21839.582      2134.9091     -11754.08      -27.03115       909918.83    
     34800   450.59824     -21768.185      2240.5362     -11597.705      6.9938198      911171.43    
     34900   452.26361     -21781.101      2187.2293     -11634.619      6.8329317      912350.36    
     35000   441.79752     -21738.254      2261.1671     -11702.024     -0.34395123     914379.55    
     35100   449.37697     -21733.557      2178.9323     -11646.173      43.840894      916542.75    
     35200   449.76939     -21603.41       2224.3633     -11463.689      4.3931381      918596.54    
     35300   445.76638     -21505.682      2265.9242     -11394.847      2.0930464      920338.9     
     35400   450.10369     -21560.844      2209.8537     -11429.75       7.6537881      921720.31    
     35500   446.67677     -21649.792      2283.4933     -11505.367     -40.547449      923275.79    
     35600   440.99378     -21595.125      2193.0699     -11641.136     -70.381858      922465.12    
     35700   452.3716      -21773.415      2173.8822     -11638.38      -20.645589      917303.72    
     35800   454.74068     -21767.623      2249.6942     -11515.083      79.646191      910638.3     
     35900   457.58672     -21914.509      2321.5897     -11539.987     -29.273992      906268.66    
     36000   456.96022     -22000.159      2174.5525     -11783.699     -32.048921      903651.86    
     36100   450.93952     -22039.601      2220.8526     -11882.798     -13.136499      901822.56    
     36200   446.43518     -21995.24       2222.2746     -11916.285      36.577682      901395.41    
     36300   444.18756     -21966.55       2264.1906     -11885.235     -2.5223279      902256.53    
     36400   451.58426     -21931.208      2252.476      -11731.435      51.172287      903641.44    
     36500   450.25825     -21877.701      2266.2926     -11687.448      35.880249      907582.25    
     36600   445.49349     -21746.504      2178.596      -11727.801      2.2713618      912623.36    
     36700   448.00631     -21798.033      2248.4752     -11665.228     -61.731528      916001.84    
     36800   452.11069     -21623.028      2155.8572     -11510.609      69.15053       917339.63    
     36900   447.45948     -21635.138      2231.6287     -11528.803     -57.275481      919433.6     
     37000   455.37129     -21720.244      2146.1365     -11560.164      35.340143      918922.27    
     37100   451.34707     -21674.608      2175.0218     -11556.463     -32.963046      918109.79    
     37200   448.4432      -21615.137      2235.3638     -11487.754     -7.2379986      916301.51    
     37300   454.79486     -21580.655      2162.694      -11414.162      25.300765      914956.04    
     37400   451.38408     -21756.058      2260.1196     -11552.164     -40.36237       914384.63    
     37500   442.91367     -21728.982      2173.4872     -11760.789      37.119505      913085.62    
     37600   445.63408     -21777.436      2202.6108     -11732.243      52.052909      911060.27    
     37700   448.78148     -21826.893      2270.6062     -11658.315      25.362027      910704.04    
     37800   454.00194     -21826.563      2204.5954     -11632.123     -17.753282      910988.55    
     37900   446.31327     -21805.717      2292.0797     -11659.103      15.692544      910645.07    
     38000   445.06171     -21753.012      2243.368      -11677.136     -7.6042769      910522.02    
     38100   444.25577     -21718.589      2223.542      -11676.722      46.950514      910549.36    
     38200   452.45247     -21807.787      2176.3689     -11668.842      16.50218       910009.49    
     38300   447.03816     -21775.975      2242.8553     -11665.828      22.122516      909399.04    
     38400   454.17588     -21792.448      2230.1795     -11569.362      18.648689      909947.36    
     38500   445.56398     -21580.708      2211.4606     -11527.899      62.345794      913708.55    
     38600   452.14929     -21589.34       2161.4713     -11470.628     -77.502271      919252.52    
     38700   447.08336     -21358.752      2181.9771     -11308.688      16.722525      921874.93    
     38800   449.35285     -21398.113      2235.6442     -11254.442      36.321104      923070.19    
     38900   448.26629     -21404.468      2197.8916     -11317.671     -3.2216893      924251.25    
     39000   446.3829      -21420.465      2196.3114     -11368.394     -15.896425      925183.92    
     39100   449.17198     -21489.895      2209.0659     -11375.985     -29.308141      923754.05    
     39200   458.44251     -21604.916      2250.6263     -11286.296     -15.303921      920807.35    
     39300   460.85196     -21653.115      2204.8828     -11337.835      26.829332      917254.73    
     39400   452.79009     -21763.423      2235.0538     -11559.851      20.924954      914697.13    
     39500   449.31231     -21847.074      2216.1286     -11723.632     -64.547424      912284.66    
     39600   451.83769     -21884.753      2193.6103     -11739.385     -22.776772      908660.45    
     39700   451.59703     -21875.952      2237.8452     -11690.585      15.213799      904803.24    
     39800   464.85829     -22094.474      2245.5169     -11668.054      47.246407      903134.17    
     39900   443.02449     -21917.092      2236.3364     -11884.099      41.615335      905146.84    
     40000   441.06596     -21985.843      2240.5876     -11983.066     -45.095967      907989.45    
     40100   448.33026     -21943.503      2187.5191     -11865.953     -8.8942916      908943.14    
     40200   447.83896     -21824.657      2197.2867     -11745.986      7.0576265      908984.8     
     40300   448.32582     -21889.716      2270.3235     -11729.44       13.990519      908809.31    
     40400   449.61736     -21853.49       2165.7727     -11775.035      4.6747115      909220.91    
     40500   445.45526     -21821.727      2185.7393     -11796.553     -10.153016      909063.84    
     40600   457.44823     -21894.748      2195.1015     -11649.151      16.131866      908406.78    
     40700   452.05142     -21723.146      2150.5312     -11617.096      76.703611      908657.91    
     40800   448.87592     -21853.031      2177.4121     -11775.985     -59.306374      910863.31    
     40900   441.82358     -21827.107      2140.5866     -11910.999     -31.845477      912571.32    
     41000   443.1817      -21817.011      2240.1831     -11777.405     -26.678357      912196.2     
     41100   452.18997     -21898.872      2255.0576     -11685.858     -0.71568776     910193.25    
     41200   447.14205     -21802.422      2214.633      -11718.669      11.997738      909297.46    
     41300   447.44767     -21842.9        2221.766      -11746.636     -7.3268273      909727.84    
     41400   451.92605     -21911.294      2178.3181     -11779.663     -36.045175      911331.2     
     41500   441.9298      -21798.246      2274.5497     -11746.306      32.209984      912286.56    
     41600   451.91469     -21803.623      2232.0988     -11618.412     -15.267199      912955       
     41700   449.88789     -21736.333      2261.4555     -11557.434      10.094719      912208.3     
     41800   452.81628     -21730.868      2175.3576     -11586.531      14.399931      911003.77    
     41900   449.11974     -21888.321      2186.9099     -11797.486     -26.823402      910405.46    
     42000   445.9845      -21862.957      2113.6346     -11900.574      30.998459      908378.22    
     42100   448.68614     -21837.828      2147.2413     -11794.293      27.723904      906071.3     
     42200   457.29066     -22017.139      2219.368      -11750.048     -23.090633      904392.13    
     42300   452.51148     -21994.84       2191.3497     -11839.875      16.767416      903179.31    
     42400   446.7863      -21938.074      2145.0627     -11930.152      28.092245      903459.42    
     42500   451.4701      -22039.972      2161.9517     -11932.732      7.4248555      904249.12    
     42600   450.02604     -21986.223      2228.3451     -11838.004     -47.013261      905313.52    
     42700   452.38932     -22006.489      2279.8661     -11765.158     -25.898652      906040.66    
     42800   454.19511     -21895.815      2135.6651     -11766.905     -59.19475       906861.39    
     42900   448.74876     -21918.783      2233.5522     -11787.835     -7.0021701      906492.66    
     43000   447.87885     -21904.194      2173.3195     -11848.788      63.126346      906222.14    
     43100   446.1461      -21975.861      2204.0582     -11920.21      -39.401214      907749.52    
     43200   443.76292     -21824.844      2175.4213     -11839.771      30.062169      908792.53    
     43300   451.0465      -21877.258      2238.4654     -11700.96       2.6487339      909618.24    
     43400   445.64574     -21738.194      2208.9077     -11686.5        7.8643213      910827.09    
     43500   448.17121     -21714.294      2191.2891     -11635.774     -15.055384      911966.14    
     43600   458.03795     -21730.497      2207.0291     -11462.594      50.806116      911819.1     
     43700   459.23696     -21715.997      2190.6337     -11443.388      8.9868478      913517.71    
     43800   450.14602     -21703.636      2252.1458     -11529.505      30.647795      915463.65    
     43900   446.43701     -21677.544      2228.9637     -11591.868     -18.443887      916583.65    
     44000   449.74308     -21698.53       2227.1888     -11556.446     -61.017391      915978.57    
     44100   451.40968     -21618.985      2249.6737     -11425.087      20.152855      913213.76    
     44200   463.61162     -21771.691      2168.1619     -11444.566      39.415026      909729.8     
     44300   452.48171     -21868.428      2157.7309     -11747.606      29.497373      907981.09    
     44400   449.14164     -21924.065      2184.5636     -11835.192     -14.554875      907912.72    
     44500   446.65588     -21881.257      2173.8751     -11846.818      8.1505632      907003.02    
     44600   448.2871      -21872.069      2236.8314     -11745.966      32.667888      904206.15    
     44700   452.42261     -21892.996      2256.2872     -11674.658      61.001267      902354.57    
     44800   450.09318     -21950.38       2218.3962     -11810.928      50.118175      903405.96    
     44900   444.85564     -21974.979      2185.2374     -11960.859     -44.054387      905134.79    
     45000   450.51617     -21963.349      2118.2772     -11916.571      11.287872      905213.92    
     45100   450.00137     -21946.877      2199.584      -11827.853      15.975027      905345.38    
     45200   448.75465     -21888.597      2205.699      -11785.398      10.875458      906535.61    
     45300   443.10435     -21805.656      2267.0143     -11740.58      -25.938038      908784.51    
     45400   451.77284     -21717.019      2228.5648     -11537.838      34.162283      910486.69    
     45500   453.21856     -21702.142      2172.2861     -11553.797      24.315104      912926.65    
     45600   444.35322     -21723.237      2257.2752     -11645.922     -37.972055      916391.63    
     45700   439.76058     -21663.369      2239.9942     -11684.159     -59.063474      919079.23    
     45800   454.26178     -21674.111      2234.9081     -11444.784     -35.392957      919622.5     
     45900   451.53403     -21582.992      2229.0147     -11407.564     -1.3382313      918243.19    
     46000   449.2741      -21683.019      2260.9809     -11515.397     -22.976711      915453.74    
     46100   448.48574     -21755.162      2153.351      -11709.044      21.349197      911240.56    
     46200   448.52709     -21912.695      2223.0022     -11796.198     -27.364313      907196.68    
     46300   450.01469     -21967.579      2214.4142     -11833.49       16.656682      903016.59    
     46400   448.80371     -22125.293      2198.7798     -12028.151      35.556208      899159.98    
     46500   437.77149     -22177.954      2281.9884     -12191.756      15.140611      896877.32    
     46600   449.86668     -22181.342      2167.7068     -12096.565      34.245114      895388.48    
     46700   455.08624     -22182.776      2179.3029     -11994.545      17.435963      895653.69    
     46800   446.64562     -22101.617      2217.7778     -12023.456      59.943405      898032.07    
     46900   440.43471     -22137.2        2321.6544     -12064.466     -53.297351      902267.43    
     47000   453.10955     -22033.704      2199.6134     -11859.951      18.347896      905757.76    
     47100   446.58789     -21841.848      2195.4493     -11787.032      47.001535      908616.83    
     47200   456.35667     -21945.364      2168.9713     -11745.108     -39.936137      911176.34    
     47300   452.26806     -21768.441      2175.0294     -11634.081     -45.55009       914180.3     
     47400   454.74397     -21787.83       2239.7399     -11545.186     -33.885229      916461.14    
     47500   450.15735     -21662.384      2186.2568     -11553.942     -23.502137      917253.16    
     47600   448.76713     -21692.067      2226.074      -11568.274      0.10366437     915986.13    
     47700   452.48669     -21806.031      2219.3107     -11623.541     -15.959693      913996.68    
     47800   448.55336     -21767.024      2138.8761     -11734.19       63.925518      911924.64    
     47900   443.04587     -21856.457      2246.2846     -11813.139     -9.2845417      910632.83    
     48000   442.74423     -21909.572      2195.0716     -11922.776     -21.004262      907717.39    
     48100   446.05431     -22129.425      2225.0503     -12054.397     -4.0569385      903312.26    
     48200   451.42823     -22227.04       2223.4        -12059.089     -14.696191      899722.81    
     48300   447.03804     -22114.092      2288.7691     -11958.034      49.138449      897521.22    
     48400   453.57026     -22165.27       2272.2493     -11910.772      40.783239      898272.95    
     48500   448.17556     -22131.311      2180.0591     -12063.943      6.143175       901259.11    
     48600   442.47902     -22207.457      2160.8655     -12259.534     -7.639267       904110.85    
     48700   441.29066     -22064.89       2137.4744     -12161.272     -13.526765      905237.89    
     48800   444.8714      -22041.417      2170.0702     -12042.188      4.7055996      904391.81    
     48900   444.8833      -21976.722      2218.8016     -11928.551      6.3153848      903433.52    
     49000   454.82549     -22052.201      2215.7744     -11832.088      7.573052       902902.82    
     49100   448.56571     -22054.463      2275.8849     -11884.404     -6.3199987      902760.74    
     49200   447.9172      -22038.75       2156.4168     -11999.572     -9.5400192      902904.7     
     49300   444.71697     -22098.314      2197.4146     -12074.458     -9.8454339      902077.53    
     49400   447.31213     -22028.732      2232.3216     -11924.297      4.6303048      900032.53    
     49500   455.44494     -22127.304      2287.1143     -11824.95       5.7527693      897813.95    
     49600   454.87249     -22108.274      2205.8008     -11897.308      24.482583      897577.59    
     49700   448.77525     -22172.363      2210.9144     -12063.587     -10.418448      899162.75    
     49800   443.10749     -22120.202      2152.0155     -12170.07       4.6685029      901360.31    
     49900   450.09026     -22052.789      2189.0565     -11942.728     -12.418833      902716.62    
     50000   451.96716     -21972.268      2170.0427     -11848.189      35.704667      904156.43    
     50100   449.04968     -22040.423      2267.7348     -11869.996      12.359272      906037.64    
     50200   448.41341     -21954.204      2206.4756     -11856.234     -48.53986       908115.76    
     50300   447.60676     -21826.644      2242.1037     -11707.242      11.469566      909442.97    
     50400   450.15103     -21855.013      2268.1355     -11664.804     -60.227819      910622.04    
     50500   452.83691     -21848.837      2170.1846     -11709.31       7.2655941      909898.22    
     50600   453.48252     -21985.377      2141.1835     -11863.489     -73.43217       908034.08    
     50700   442.24706     -22038.267      2163.4101     -12091.883      18.640379      904403.86    
     50800   445.37184     -22096.888      2213.6497     -12045.272      1.5446282      900388.72    
     50900   451.36762     -22131.544      2232.4068     -11955.652      55.978754      897250.85    
     51000   448.69187     -22170.681      2290.2476     -11984.039      17.681267      897015.48    
     51100   453.41325     -22161.384      2185.4868     -11996.412      57.360323      898832.67    
     51200   454.71491     -22202.842      2230.3931     -11970.056      13.454699      902511.6     
     51300   454.00685     -22034.211      2229.3085     -11814.971      4.6979807      906349.15    
     51400   459.52729     -21974.338      2176.2108     -11711.043     -20.449211      909345.65    
     51500   451.68387     -21882.138      2228.8136     -11704.275     -23.251826      911278.75    
     51600   450.32901     -21786.274      2211.6167     -11649.451      17.278504      912297.33    
     51700   454.80529     -21773.788      2234.7748     -11535.03      -14.065923      913105.89    
     51800   456.63455     -21731.192      2156.0857     -11538.931     -61.670279      912874.34    
     51900   451.19062     -21928.774      2249.1482     -11739.256     -40.920144      910802.26    
     52000   450.37274     -21987.456      2171.1812     -11890.299     -20.374122      908052.84    
     52100   445.42544     -21880.426      2142.4278     -11899.088      55.484515      905626.89    
     52200   449.761       -21957.153      2217.2425     -11824.701      40.907006      904488.3     
     52300   447.72803     -21989.817      2289.7363     -11820.648     -40.881206      904741.08    
     52400   450.0797      -22000.321      2232.3312     -11847.171     -4.7194121      904730.2     
     52500   447.49215     -22007.899      2249.9182     -11882.699      9.1241473      904846.55    
     52600   446.52326     -22042.517      2255.9845     -11928.303      13.165324      904852.95    
     52700   449.83479     -22012.896      2198.2373     -11898.15      -7.5463587      905077.13    
     52800   453.9173      -22011.833      2240.1305     -11783.347     -20.679334      905473.23    
     52900   448.6329      -21836.378      2219.3693     -11721.651      22.715394      906573.54    
     53000   449.96581     -21885.862      2251.5432     -11715.504      52.551183      908171.59    
     53100   456.70227     -21904.331      2184.1766     -11682.787     -61.912803      910911.9     
     53200   451.9155      -21797.566      2292.8089     -11551.63      -9.5029186      912782       
     53300   457.76823     -21797.272      2238.2307     -11502.914     -15.684926      914213.54    
     53400   449.72231     -21744.068      2203.1326     -11626.406     -34.728168      915126.57    
     53500   445.14195     -21843.416      2200.6664     -11808.829     -12.898581      914205.74    
     53600   441.48365     -21879.243      2168.2864     -11941.417      0.093422505    910972.65    
     53700   450.87557     -22045.451      2260.5832     -11850.043     -8.7803914      906860.73    
     53800   453.88691     -21913.324      2208.0363     -11717.467      45.479287      903571.48    
     53900   451.2294      -21967.966      2289.2323     -11737.681      38.027843      902808.16    
     54000   446.29957     -21998.396      2213.6756     -11930.427      18.611522      903709.71    
     54100   442.31523     -22041.02       2226.2503     -12030.596     -20.198246      904664.73    
     54200   448.21266     -22009.148      2149.6703     -11971.516      0.65887055     905125.13    
     54300   451.61736     -22003.559      2148.2926     -11907.386     -22.471311      905739.19    
     54400   446.73692     -21896.678      2200.8781     -11833.809      27.352624      906198.79    
     54500   451.91485     -21932.666      2208.4874     -11771.064      13.244824      906731.74    
     54600   450.53111     -21909.904      2218.0278     -11763.114      2.2298169      907557.52    
     54700   452.76578     -21845.21       2231.3134     -11645.806      0.75153668     909370.58    
     54800   449.10802     -21691.94       2292.9952     -11495.226      8.8737247      912020.39    
     54900   449.77289     -21699.046      2227.7097     -11555.917     -17.546272      914436.49    
     55000   445.92438     -21741.435      2172.668      -11721.076     -33.326549      915612.22    
     55100   442.75013     -21724.84       2173.3888     -11759.623     -35.241986      914240.09    
     55200   458.35743     -21801.724      2232.9271     -11502.301     -9.6489163      910783.68    
     55300   458.82319     -21831.1        2210.622      -11545.785     -11.567741      907617.29    
     55400   452.95831     -21965.504      2217.1118     -11776.914      9.296652       905679.41    
     55500   445.53943     -22002.642      2231.9666     -11929.76      -1.03768        904489.79    
     55600   449.88285     -22068.484      2203.6542     -11947.475     -17.282942      902308.71    
     55700   455.65013     -22104.126      2195.7994     -11889.476     -12.262879      899746.75    
     55800   455.24493     -22092.817      2255.8563     -11825.241      44.668302      898840.7     
     55900   446.61091     -21985.409      2185.5353     -11940.101      30.535272      900832.21    
     56000   439.88876     -22036.325      2192.1704     -12102.683     -7.3232986      903319.23    
     56100   446.80398     -22027.869      2176.1135     -11988.585     -14.66035       904823.95    
     56200   446.56489     -21971.455      2239.7076     -11872.784     -3.3798547      904984.88    
     56300   453.87273     -21999.957      2183.1928     -11829.193      11.194302      904466.28    
     56400   450.01347     -22040.28       2279.5978     -11841.029     -18.868738      904136.64    
     56500   448.34799     -21926.422      2180.8692     -11855.21       16.905225      903499.8     
     56600   454.03791     -21956.675      2204.5504     -11761.646      2.4368506      902965.58    
     56700   457.8254      -22005.28       2231.0364     -11717.111      8.229702       902767.94    
     56800   448.01991     -21937.348      2201.312      -11851.467      19.976832      903992.57    
     56900   441.98963     -22021.752      2222.2461     -12021.062     -45.392969      905437.54    
     57000   441.25777     -21937.253      2250.8651     -11920.823     -35.239368      905863.18    
     57100   453.32345     -21916.494      2159.6604     -11778.929      18.905775      905192.94    
     57200   441.00779     -21783.27       2224.0091     -11798.096      81.349444      906005.36    
     57300   445.42681     -21814.918      2170.5668     -11805.417     -13.456038      908940.35    
     57400   447.28778     -21788.865      2229.2741     -11687.906      12.278438      911141.4     
     57500   461.70772     -21891.381      2204.2871     -11561.637     -20.983283      911395.04    
     57600   450.18974     -21851.26       2313.5465     -11614.958     -63.795798      911089.57    
     57700   449.6181      -21900.873      2253.6161     -11734.562     -14.080403      910350.86    
     57800   447.51876     -21851.127      2164.5448     -11810.832     -20.201759      910023.54    
     57900   448.40245     -21856.139      2159.2494     -11805.588      17.402471      909670.24    
     58000   449.64322     -21811.906      2213.1209     -11685.648      41.431041      909029.14    
     58100   455.65087     -21863.55       2241.1382     -11603.548     -7.1200525      908575.04    
     58200   458.53419     -21923.001      2191.8627     -11661.531     -31.95159       908545.39    
     58300   440.98339     -21865.449      2229.6235     -11875.09       9.6279648      909213.57    
     58400   444.15296     -21904.514      2173.3379     -11914.66      -36.000881      909883.55    
     58500   448.45644     -21904.539      2187.4998     -11824.788      17.011901      909980.66    
     58600   450.61188     -21913.416      2203.043      -11780.188     -47.600658      910057.97    
     58700   446.33018     -21850.025      2286.0714     -11709.122     -44.166873      909691.99    
     58800   454.26849     -21949.943      2274.3222     -11681.084      1.2657809      908779.33    
     58900   451.55053     -21978.282      2216.9019     -11814.676     -32.031727      908707.71    
     59000   441.18104     -21943.663      2154.5503     -12024.899     -19.480986      907020.58    
     59100   441.79135     -21961.58       2190.3403     -11996.286      36.687088      903294.86    
     59200   452.84504     -22078.865      2175.6679     -11933.712      11.133824      898977.18    
     59300   451.86909     -22035.436      2156.278      -11926.848      12.077435      895742.18    
     59400   452.37044     -22159.673      2223.3045     -11975.236      22.67941       894244.36    
     59500   449.63006     -22210.678      2221.0385     -12076.734     -50.474203      895901.97    
     59600   443.80172     -22074.809      2189.4082     -12075.066      37.351396      898138.89    
     59700   450.77989     -22008.366      2214.4317     -11860.794      31.52517       901307.61    
     59800   449.04944     -21916.249      2245.6584     -11767.903      6.9036357      906592.89    
     59900   444.0117      -21712.575      2223.8157     -11674.729     -13.768844      911853.3     
     60000   453.22125     -21705.47       2164.1997     -11565.164     -16.983516      915015.67    
     60100   451.29609     -21765.089      2243.5426     -11579.321     -48.664402      917034.21    
     60200   452.39047     -21767.494      2158.7247     -11647.284     -47.363058      917423.21    
     60300   444.96445     -21768.913      2193.2317     -11744.884      10.580975      914827.55    
     60400   446.6525      -21789.298      2182.2101     -11746.583      19.168514      911302.12    
     60500   454.6269      -21892.65       2178.7807     -11713.026     -0.29837652     907572.07    
     60600   451.34895     -21887.465      2249.5331     -11694.776      56.599121      904714.87    
     60700   448.14163     -21910.192      2215.842      -11807.639      28.676972      903983.52    
     60800   446.0249      -22048.083      2219.0918     -11979.531      15.279018      904031.64    
     60900   442.8364      -22025.905      2186.7481     -12045.81       20.979314      903711.94    
     61000   446.41851     -21953.972      2261.5323     -11836.053      9.6038236      903563.29    
     61100   447.19972     -21776.957      2112.6913     -11794.131      91.994437      904106.22    
     61200   447.70788     -21893.008      2208.8903     -11805.04       11.283649      904767.33    
     61300   449.20079     -21894.339      2236.529      -11752.459      27.736682      904320.21    
     61400   451.39074     -21864.868      2269.6216     -11651.356      23.721624      904103.27    
     61500   453.91532     -21894.354      2315.4164     -11590.617      24.538634      905007       
     61600   444.6318      -21765.179      2255.8413     -11684.394      1.4966519      906951.81    
     61700   441.47553     -21866.852      2202.1846     -11895.271      4.4586441      908580.2     
     61800   443.12126     -21890.195      2153.1222     -11938.714      6.3906568      908327.85    
     61900   456.22005     -22050.946      2181.663      -11840.402     -28.583758      906353.93    
     62000   455.45709     -21975.542      2257.7385     -11702.349      24.13859       904616.45    
     62100   458.49838     -22025.649      2182.6513     -11774.021      6.6645079      905722.02    
     62200   447.29998     -21944.986      2216.772      -11856.315     -52.468218      908096.69    
     62300   449.63672     -21903.947      2160.6389     -11830.285     -41.570027      908683.26    
     62400   449.16777     -21829.802      2224.6989     -11700.333     -17.588063      907553.2     
     62500   454.21627     -21901.973      2236.6814     -11671.674      12.283655      905741.29    
     62600   457.05868     -21976.684      2167.2524     -11765.792      14.30917       904876.74    
     62700   445.70057     -21931.52       2221.4471     -11866.321      4.1412681      905292.77    
     62800   449.00265     -22051.883      2245.6783     -11904.341     -46.390825      905715.74    
     62900   457.14766     -21992.534      2132.6101     -11814.718      17.302972      906649.35    
     63000   456.30093     -21961.863      2276.7609     -11654.797     -22.758167      908214.61    
     63100   453.9186      -21882.067      2194.7314     -11698.958     -49.093423      909886.19    
     63200   443.08581     -21823.429      2205.8128     -11819.881     -56.588849      910454.35    
     63300   440.30815     -21833.46       2250.5764     -11834.032      0.65211978     908524.1     
     63400   457.13266     -21925.961      2234.5479     -11646.471      49.445321      905107.84    
     63500   456.65702     -22011.394      2251.953      -11722.87       29.641414      904121.3     
     63600   446.62638     -22022.268      2248.7854     -11913.437      34.928431      904990.58    
     63700   445.53502     -22075.307      2297.6602     -11936.808     -37.128041      906167.78    
     63800   453.75373     -22082.873      2218.552      -11878.844     -26.052658      906364.44    
     63900   453.17941     -22022.26       2175.3603     -11871.53      -0.42617264     905952.11    
     64000   460.81957     -22029.592      2199.6795     -11720.086      37.338713      905896.49    
     64100   458.7348      -21947.444      2218.4084     -11655.899      25.80495       907084.38    
     64200   452.20272     -21925.391      2152.6132     -11814.597     -19.372508      909986.89    
     64300   445.50825     -21961.994      2202.5998     -11919.027     -27.168058      912081.92    
     64400   447.58162     -21972.822      2271.9552     -11824.011     -47.673123      912103.66    
     64500   445.68574     -21819.029      2288.8518     -11686.686     -16.963508      911282.57    
     64600   453.80367     -21863.939      2194.8265     -11682.757      16.644648      910072.29    
     64700   451.74282     -21924.211      2272.0886     -11702.034     -66.558401      908569.06    
     64800   448.86562     -21930.935      2216.7989     -11814.683      34.054077      906545.11    
     64900   444.39573     -21979.658      2181.3894     -11977.48      -14.014713      905331.59    
     65000   450.42853     -22126.645      2164.4959     -12035.192      13.716272      902815.4     
     65100   450.54605     -22029.255      2251.3737     -11848.855      42.357673      900238.26    
     65200   451.94215     -22002.838      2267.3653     -11781.878      2.9525411      899938.1     
     65300   448.16107     -22006.928      2213.7286     -11906.146      40.51637       902209.76    
     65400   441.81642     -21964.106      2171.462      -12017.249     -36.2972        905523.78    
     65500   450.98389     -21990.157      2159.8363     -11893.589      38.806025      906215.86    
     65600   449.19371     -21888.334      2240.7297     -11742.378      15.254218      907193.29    
     65700   445.29131     -21830.845      2266.8916     -11727.404     -3.6074694      907867.58    
     65800   448.36867     -21901.676      2275.4493     -11735.52      -22.666348      907312.5     
     65900   451.86082     -21933.859      2270.2067     -11711.488     -8.7083359      905587.9     
     66000   453.99382     -21982.95       2246.9788     -11746.269      25.283729      903788.84    
     66100   441.87631     -21950.952      2199.6059     -11974.896      17.376722      903517.68    
     66200   446.63722     -22116.932      2254.103      -12002.593     -32.209999      903486.25    
     66300   447.82008     -22034.147      2237.9264     -11915.168      22.026444      902581.66    
     66400   455.56497     -22095          2254.9612     -11822.686      30.965832      902495.87    
     66500   440.48472     -21875.833      2268.2392     -11855.635      14.416951      904692.42    
     66600   448.21209     -21987.401      2245.02       -11854.43      -53.31745       908359.7     
     66700   444.9347      -21812.319      2195.8201     -11786.226     -6.4447577      910652.45    
     66800   450.7038      -21841.315      2247.2595     -11662.253     -18.277745      911423.12    
     66900   453.97167     -21823.368      2187.689      -11646.366      15.529375      911892.63    
     67000   451.24667     -21767.811      2157.4324     -11669.022      50.036959      913192.45    
     67100   447.94324     -21724.817      2188.481      -11653.116      30.808134      915701.19    
     67200   453.19609     -21651.543      2225.0779     -11450.802     -21.666132      919193.96    
     67300   452.37792     -21574.343      2233.8476     -11379.231     -47.305849      923493.01    
     67400   449.77014     -21496.4        2233.7043     -11347.325     -65.558384      926509.76    
     67500   451.45991     -21497.913      2271.3554     -11281.449     -31.338797      926938.03    
     67600   456.15597     -21462.726      2244.3387     -11190.634     -7.5923797      925761.61    
     67700   455.7043      -21549.174      2283.5762     -11245.793     -31.978144      923749.03    
     67800   447.24676     -21517.3        2134.8158     -11511.522      34.055352      920674.31    
     67900   452.68725     -21795.079      2228.5769     -11599.794     -3.825081       917121.64    
     68000   441.79198     -21693.069      2251.5248     -11666.579      63.324855      912875.01    
     68100   451.64299     -21900.757      2204.0334     -11748.393     -22.313535      909550.51    
     68200   438.43771     -21887.862      2240.8462     -11931.081      36.730771      906759.18    
     68300   446.72032     -22064.388      2216.3962     -11986.294     -28.958535      904280.84    
     68400   452.84273     -22032.124      2204.8539     -11857.826      46.031867      902144.33    
     68500   455.38846     -22001.018      2250.628      -11736.144      28.16072       902403.37    
     68600   447.21433     -21871.073      2221.6152     -11779.066      24.888817      904949.25    
     68700   448.02196     -21889.594      2158.5713     -11846.418     -17.236172      908578.79    
     68800   454.54574     -21886.585      2210.7242     -11676.445     -7.3489811      911559.24    
     68900   449.84894     -21757.28       2271.3297     -11569.193      0.79094321     913909.21    
     69000   452.22643     -21660.32       2188.2945     -11513.427      11.874545      916115.86    
     69100   450.70522     -21590.637      2200.9777     -11457.833      4.632874       918351.81    
     69200   452.52455     -21493.962      2177.5168     -11352.6       -0.46645175     920532.28    
     69300   460.25773     -21437.836      2136.2536     -11201.643      44.9957        923633.41    
     69400   449.54693     -21400.511      2224.1215     -11264.947      3.4019551      927675.18    
     69500   443.74927     -21364.335      2230.3379     -11324.586     -33.404918      930237.12    
     69600   447.52227     -21414.427      2231.4812     -11307.135     -5.0547467      929884.94    
     69700   454.76949     -21483.706      2167.4446     -11312.909     -13.376089      927638.32    
     69800   445.88481     -21436.407      2238.9883     -11350.425     -9.08201        924828.01    
     69900   454.77479     -21602.434      2231.2161     -11367.771      18.145777      920949.57    
     70000   451.71986     -21684.725      2290.2977     -11444.744      17.799785      917754.87    
     70100   445.25454     -21758.365      2282.5113     -11639.952      8.0612925      915461.09    
     70200   444.2117      -21725.21       2187.079      -11720.581      6.3391322      914614.41    
     70300   448.63123     -21786.696      2257.4858     -11633.883      40.160495      913345.98    
     70400   456.41943     -21756.625      2206.2967     -11517.939      17.255292      912830.87    
     70500   451.04954     -21753.811      2239.0913     -11576.832      17.150639      912776.74    
     70600   452.33439     -21816.491      2218.9187     -11637.074      30.831124      911721.95    
     70700   449.87726     -21786.682      2192.4531     -11676.973      47.105057      910400.07    
     70800   448.58691     -21809.715      2179.4852     -11735.682     -12.626024      910111.13    
     70900   454.21102     -21891.282      2148.2557     -11749.502      20.134919      909272.67    
     71000   450.04401     -21822.172      2218.6152     -11683.366      30.307463      908256.28    
     71100   455.98836     -21808.332      2215.3495     -11568.18       12.040775      908115.7     
     71200   452.02043     -21858.935      2227.9072     -11676.055      21.045033      909020.98    
     71300   444.25054     -21915.408      2220.7648     -11876.41      -71.825057      910232.45    
     71400   443.9052      -21934.325      2245.2737     -11876.896     -21.550035      909531.51    
     71500   451.5848      -22024.836      2243.1711     -11834.359     -6.1703636      908690.45    
     71600   453.50318     -21904.193      2129.9873     -11793.138      32.677158      907893.63    
     71700   447.29068     -21822.412      2232.7385     -11717.938      3.1876084      907834.84    
     71800   449.92937     -21786.309      2246.4189     -11621.717      6.7540039      907643.82    
     71900   461.68191     -21726.977      2209.0547     -11392.92       53.67093       908322.72    
     72000   457.46759     -21758.832      2185.7363     -11522.26       15.105972      911445.92    
     72100   449.48311     -21718.732      2131.0009     -11677.411      0.01886704     914813.14    
     72200   438.70165     -21611.746      2235.4165     -11655.749      20.013401      916378.34    
     72300   452.94256     -21745.876      2257.143      -11517.531     -12.471143      916450.05    
     72400   453.61479     -21766.817      2249.7899     -11533.995     -63.870745      915512.21    
     72500   446.53405     -21687.624      2224.4509     -11604.753      20.590432      912432.37    
     72600   450.21853     -21848.989      2220.0813     -11705.645      16.546753      909285.37    
     72700   446.07974     -21852.136      2215.2994     -11786.412     -47.912651      906612.5     
     72800   448.2943      -21902.497      2231.2349     -11781.865      52.831005      903439.65    
     72900   452.56532     -21933.166      2203.8923     -11764.712      40.670803      901607.7     
     73000   453.60301     -22080.277      2245.991      -11851.461      0.23351385     900260.58    
     73100   447.90558     -22044.834      2139.9644     -12022.312      65.694754      900283.97    
     73200   441.67426     -22074.722      2168.0795     -12133.749      22.50755       901678.98    
     73300   452.69985     -22173.468      2136.5142     -12070.024     -34.154932      903187.52    
     73400   449.58014     -22037.375      2258.1616     -11867.187     -23.455978      904380.34    
     73500   450.63015     -22020.579      2254.0536     -11836.02      -15.168117      906100.43    
     73600   445.66523     -21886.696      2261.8377     -11781.729      12.473538      907820.38    
     73700   452.48382     -21786.557      2171.1677     -11652.261      46.568394      909538.01    
     73800   445.50306     -21763.111      2266.5875     -11656.248     -33.246093      913232.42    
     73900   452.68709     -21861.594      2238.2378     -11656.651     -76.795814      915941.45    
     74000   456.13245     -21696.796      2231.9437     -11437.513      0.063055755    915791.51    
     74100   455.06278     -21649.317      2225.2931     -11415.509     -23.966979      916353.83    
     74200   448.64411     -21653.551      2203.8726     -11554.124      0.35543977     917058.11    
     74300   444.48082     -21741.486      2239.024      -11680.176      0.6697412      915982.13    
     74400   450.85548     -21807.208      2179.3371     -11693.399     -10.898725      914798.75    
     74500   448.86277     -21752.516      2224.5955     -11628.518     -5.2480679      913618.6     
     74600   460.39221     -21680.286      2186.143      -11391.838      34.856346      913133.37    
     74700   452.9995      -21659.137      2270.7739     -11416.159     -1.2734493      914972.39    
     74800   453.59912     -21755.567      2181.8615     -11590.949     -12.922797      916825.58    
     74900   441.76684     -21668.471      2167.3441     -11726.604     -44.199051      917240.44    
     75000   445.47452     -21685.102      2170.4337     -11674.894      30.193178      914675.87    
     75100   454.9856      -21768.164      2212.0712     -11548.936     -1.0092157      912220.13    
     75200   450.62633     -21728.044      2239.2216     -11558.384      47.049681      910888.97    
     75300   448.51713     -21747.381      2212.9852     -11641.077      34.368379      911227.17    
     75400   453.32681     -21838.064      2185.5395     -11674.561     -21.008082      911775.6     
     75500   453.1025      -21803.485      2241.6286     -11587.84      -33.475575      911736.86    
     75600   458.23156     -21785.583      2296.6332     -11424.669      36.143052      911879.93    
     75700   452.87532     -21764.737      2255.0237     -11539.695      11.585126      914235.95    
     75800   450.49006     -21671.163      2129.847      -11613.276     -36.73113       916539.62    
     75900   449.07562     -21668.301      2170.069      -11595.083     -26.160528      916266.73    
     76000   454.98936     -21775.799      2196.4745     -11572.102      16.755057      914861.2     
     76100   448.93072     -21814.505      2315.6443     -11598.263     -5.2341835      914597.59    
     76200   449.8958      -21860.106      2223.5488     -11718.975     -40.130322      914720.82    
     76300   440.59177     -21729.293      2155.7206     -11819.728     -16.928485      913801.83    
     76400   453.29857     -21843.225      2160.3922     -11705.366      15.704016      911114.74    
     76500   453.20791     -21924.116      2286.6902     -11661.555      44.461037      909057.68    
     76600   447.73549     -21845.989      2162.1598     -11804.266      68.376858      909663.14    
     76700   445.50485     -21924.117      2195.875      -11887.935     -100.94036      912027.64    
     76800   451.42083     -21887.762      2237.4939     -11705.847      22.056264      912575.05    
     76900   450.83321     -21804.967      2264.3516     -11606.536     -28.867094      914244.91    
     77000   453.9176      -21878.47       2242.3345     -11647.775      26.675519      915103.6     
     77100   443.71207     -21694.328      2217.787      -11667.785     -6.8025333      916539.85    
     77200   449.71668     -21644.071      2212.8099     -11516.831      9.0034466      917384.9     
     77300   455.55679     -21672.676      2204.2562     -11451.212     -25.772114      918013.08    
     77400   456.28282     -21814.891      2263.8449     -11521.061     -27.88812       917972.07    
     77500   447.15909     -21805.764      2222.9542     -11713.39      -77.781727      916744.51    
     77600   441.05737     -21786.763      2204.4014     -11820.324     -15.156094      913264.09    
     77700   453.92503     -21910.749      2201.8121     -11720.445      28.557072      907253.58    
     77800   450.222       -21841.68       2265.2787     -11653.078      99.728725      902950.88    
     77900   449.321       -22038.137      2316.7808     -11813.889      18.955464      902847.12    
     78000   446.69946     -22025.361      2188.7204     -11975.31       10.888879      904115.63    
     78100   449.54341     -22058.664      2167.7056     -11979.578     -32.367091      904860.93    
[...]
   2988600   303.19101     -31313.384      1345.738      -24631.878      13.059427      704825.82    
   2988700   299.48211     -31293.286      1284.358      -24738.432     -37.560252      707039.15    
   2988800   298.96178     -31211.404      1263.9877     -24686.077     -24.531323      708518.28    
   2988900   298.72423     -31136.964      1307.6484     -24572.157     -2.3669704      707975.6     
   2989000   301.41427     -31176.86       1332.7265     -24539.634      25.507454      706797.34    
   2989100   297.83391     -31140.268      1326.6381     -24572.139      23.128265      707027.89    
   2989200   295.62867     -31180.002      1332.0828     -24645.238     -28.032775      708300.62    
   2989300   295.36903     -31163.503      1314.0503     -24651.341     -25.031197      708095.93    
   2989400   303.56903     -31169.537      1308.3709     -24518.745      35.595447      706569.34    
   2989500   302.73072     -31176.674      1332.8316     -24516.174      31.815455      707276.78    
   2989600   298.46845     -31126.603      1309.1743     -24564.771     -17.269751      709547.5     
   2989700   292.7902      -30992.681      1293.5929     -24546.361     -0.61926005     710073.38    
   2989800   307.52118     -31136.24       1307.8003     -24416.466     -19.257394      708799.2     
   2989900   303.79881     -31092.815      1319.2813     -24427.069      37.202902      708183.35    
   2990000   297.84596     -31104.557      1313.0826     -24549.772     -26.175582      709087.04    
   2990100   300.60922     -31212.359      1328.5989     -24593.428     -27.816872      708501.38    
   2990200   301.55356     -31169.849      1275.8262     -24587.071      5.5603179      706852.9     
   2990300   296.12236     -31162.606      1368.85       -24582.387      38.698025      705981.2     
   2990400   298.80447     -31133.61       1326.5581     -24548.481      22.273218      707001.8     
   2990500   304.35228     -31131.994      1293.5124     -24482.276     -11.55717       708884.99    
   2990600   300.67421     -31054.977      1326.5041     -24436.997     -39.148965      710160.65    
   2990700   302.98665     -31080.455      1325.2941     -24422.989     -5.0250069      709026.36    
   2990800   303.1004      -31157.123      1287.3416     -24535.608      48.951526      707709.95    
   2990900   298.16586     -31201.063      1319.5846     -24634.146     -48.565756      708184.26    
   2991000   295.86713     -31115.828      1294.5424     -24614.408      48.810424      707896.94    
   2991100   298.62049     -31124.682      1314.6964     -24554.652      53.693626      707604.04    
   2991200   301.61794     -31083.146      1330.3581     -24444.703      4.0779575      709582.83    
   2991300   298.6329      -31008.649      1330.4665     -24422.631     -67.198748      711857.31    
   2991400   304.92354     -31115.439      1317.4368     -24431.744     -72.732543      711006.06    
   2991500   304.49494     -31121.089      1288.1841     -24474.189      23.589378      707534.12    
   2991600   298.21586     -31176.15       1342.5284     -24585.409      106.09101      705932.14    
   2991700   298.641       -31249.545      1349.5613     -24644.289     -4.7603041      707427.26    
   2991800   295.67837     -31162.412      1337.1844     -24621.672      13.385874      709210.85    
   2991900   299.14339     -31131.471      1323.0936     -24543.842     -58.35682       709761.42    
   2992000   302.6947      -31180.069      1335.6929     -24517.342      9.9458373      707976.2     
   2992100   302.22007     -31161.734      1303.5085     -24539.545      36.384579      706919.81    
   2992200   295.84077     -31047.439      1235.6923     -24605.333      69.599068      707941.23    
   2992300   296.10172     -31114.209      1263.7805     -24639.422     -32.364402      709278.9     
   2992400   300.00265     -31120.354      1327.4266     -24513.271     -3.655842       708358.59    
   2992500   305.0509      -31147.803      1313.3089     -24465.994      34.083876      707856.84    
   2992600   296.96947     -31084.513      1321.4708     -24536.764     -11.810265      709278.44    
   2992700   295.94096     -31123.364      1298.5961     -24616.591     -16.054146      709080       
   2992800   299.84884     -31232.258      1317.4916     -24637.816      10.075861      706402.79    
   2992900   298.18681     -31135.425      1298.3027     -24589.422      121.48747      705027.62    
   2993000   299.03527     -31116.727      1311.3431     -24542.751      34.152457      708023.55    
   2993100   295.28373     -31024.678      1343.6125     -24484.455     -106.36538      711934.48    
   2993200   301.92625     -30973.314      1285.4747     -24374.329     -24.579902      711474.46    
   2993300   299.02017     -30971.242      1320.7872     -24388.088      80.787062      708846.03    
   2993400   303.47473     -31140.531      1310.3342     -24489.435      10.889365      707279.99    
   2993500   304.86045     -31259.406      1330.1406     -24564.118      6.9224023      707286.47    
   2993600   299.33764     -31202.242      1318.1691     -24616.119     -37.071835      708236.9     
   2993700   295.24238     -31104.026      1290.8903     -24617.253      34.832215      708010.04    
   2993800   301.49981     -31166.481      1324.3145     -24536.161      13.715927      707916.45    
   2993900   298.14514     -31009.163      1335.8203     -24426.375      82.87855       708486.76    
   2994000   303.83199     -31082.539      1281.8478     -24453.643     -9.1537994      709959.72    
   2994100   298.31078     -31088.486      1304.5602     -24534.043     -38.763235      709855.96    
   2994200   299.94407     -31144.508      1300.899      -24564.983      38.076712      707226.09    
   2994300   301.42196     -31203.959      1279.9384     -24619.386      106.86456      705327.49    
   2994400   299.67074     -31284.202      1306.5637     -24703.822     -28.866318      707195.73    
   2994500   295.19409     -31154.375      1276.9138     -24682.429     -38.450861      709178.88    
   2994600   298.01671     -31102.362      1311.0212     -24546.634      27.594491      708213.15    
   2994700   302.18748     -31193.813      1340.8241     -24534.881      0.26555274     706655.26    
   2994800   304.1281      -31237.666      1316.9166     -24568.49      -29.49728       707268.71    
   2994900   297.71601     -31210.527      1317.2939     -24653.817     -55.819081      708558.25    
   2995000   297.74002     -31185.809      1290.8114     -24655.159     -22.996733      707564.08    
   2995100   308.82169     -31276.332      1305.2954     -24536.175      51.627236      704804.24    
   2995200   301.82983     -31205.635      1359.9531     -24533.868      34.655719      706550.32    
   2995300   295.62199     -31123.032      1267.3142     -24653.154     -114.66733      710536.6     
   2995400   298.13375     -31134.817      1250.8533     -24637.196     -60.298972      709181.44    
   2995500   304.5592      -31197.22       1370.9829     -24466.39       35.169877      705320.47    
   2995600   303.85918     -31230.874      1366.0371     -24517.31       33.999088      705701.29    
   2995700   293.94236     -31096.494      1305.6001     -24617.89      -17.869749      708828.24    
   2995800   299.60537     -31142.802      1265.5732     -24604.563     -45.698468      709660.05    
   2995900   294.77772     -31054.009      1383.7761     -24482.528      19.904731      708458.42    
   2996000   303.03812     -31119.602      1321.7396     -24464.785      5.6717695      708068.63    
   2996100   300.7604      -31136.445      1328.8234     -24514.628      2.9836995      708017.87    
   2996200   296.74844     -31171.268      1346.1317     -24602.748     -6.7624686      707686.82    
   2996300   294.24908     -31188.169      1313.9869     -24695.78      -45.987822      707108.21    
   2996400   297.34134     -31368.714      1334.6458     -24801.247      17.328368      705274.22    
   2996500   297.4263      -31329.414      1237.5813     -24857.516      21.72225       703907.15    
   2996600   300.75876     -31342.255      1280.103      -24769.188      53.49108       704128.75    
   2996700   300.1918      -31216.769      1268.1503     -24665.632      1.4046501      706550.08    
   2996800   299.67415     -31180.164      1296.8685     -24609.42      -41.513517      708899.87    
   2996900   297.8831      -31056.024      1272.8609     -24540.807     -0.025031053    709080.47    
   2997000   301.98006     -31144.782      1323.0135     -24507.311      11.297422      707680.15    
   2997100   305.45909     -31228.243      1295.1896     -24557.369      27.919355      706030.88    
   2997200   298.02413     -31281.063      1298.145      -24738.08       7.8478734      705306.06    
   2997300   299.11878     -31316.169      1284.8185     -24767.248     -0.89516482     704998.33    
   2997400   296.81272     -31277.57       1337.6667     -24716.385      31.607364      705286.25    
   2997500   295.19616     -31178.905      1360.8998     -24622.935      11.611069      706543.07    
   2997600   302.15987     -31234.32       1339.173      -24577.525     -28.22869       707352.21    
   2997700   300.75497     -31170.281      1323.1472     -24554.236      15.222858      707734.94    
   2997800   300.92838     -31106.288      1351.6697     -24458.669     -8.2843279      708540.04    
   2997900   303.13852     -31042.788      1343.7348     -24364.208     -24.805114      709620.21    
   2998000   300.03973     -31024.689      1314.9627     -24429.417     -8.5044188      709688.31    
   2998100   298.14956     -31101.114      1318.9165     -24535.152     -35.169327      708547.25    
   2998200   298.91031     -31145.966      1310.4895     -24575.043      34.554743      706687.9     
   2998300   298.228       -31146.183      1310.4462     -24587.311      58.453641      706000.06    
   2998400   298.13322     -31134.847      1307.1161     -24580.973     -1.520536       707221.11    
   2998500   301.03835     -31055.616      1322.8073     -24434.925     -26.381275      708809.43    
   2998600   305.5371      -31023.341      1256.9895     -24389.295     -26.291612      709188.13    
   2998700   301.12317     -30994.557      1263.0014     -24432.178      43.657675      709265.75    
   2998800   296.64578     -31113.374      1345.6574     -24547.136     -30.283356      708642.11    
   2998900   300.85247     -31176.833      1269.1372     -24613.082      11.01003       707070.52    
   2999000   299.45662     -31200.974      1306.2624     -24624.663      17.062846      705683.59    
   2999100   302.18134     -31246.975      1302.9433     -24626.032      16.697189      705210.26    
   2999200   298.78911     -31199.9        1298.8751     -24642.724      20.444226      706088.77    
   2999300   297.50104     -31184.07       1329.3248     -24619.112      4.8905155      707649.56    
   2999400   302.6804      -31150.465      1345.5395     -24478.143     -23.944967      708639.68    
   2999500   301.84678     -31060.228      1312.6374     -24435.479     -16.651558      708993.18    
   2999600   301.27983     -31102.807      1324.5506     -24476.122     -4.6364911      708604.86    
   2999700   296.58945     -31150.393      1338.6288     -24592.175     -25.15371       707711.42    
   2999800   297.9626      -31275.673      1349.6202     -24682.298     -16.248795      706115.89    
   2999900   297.51544     -31285.433      1364.2802     -24685.267      47.957743      704408.51    
   3000000   305.25745     -31227.335      1296.328      -24558.872      58.273144      704940.31    
   3000100   301.33905     -31150.927      1336.012      -24511.739     -56.473443      707772.83    
   3000200   301.91073     -31105.432      1297.578      -24494.617     -74.135351      709294.9     
   3000300   303.89601     -31143.912      1316.0663     -24479.67      -15.541502      708406.24    
   3000400   297.47313     -31076.322      1296.9231     -24544.257      27.660376      707124.06    
   3000500   298.2499      -31191.561      1286.1366     -24656.613      44.519121      706461.15    
   3000600   292.80998     -31153.963      1302.3796     -24698.508      51.801584      706816.95    
   3000700   300.94999     -31169.331      1260.2543     -24612.747      5.8833525      707169.96    
   3000800   303.0931      -31149.983      1315.9116     -24500.026     -15.318506      708210.3     
   3000900   304.6257      -31173.068      1300.9191     -24511.132     -68.813208      708911.33    
   3001000   302.39738     -31228.01       1348.7003     -24557.509     -34.794139      707534.76    
   3001100   297.39364     -31265.28       1374.8883     -24656.649      13.6238        705761.49    
   3001200   293.15159     -31233.355      1318.1572     -24756.111      14.437242      706002.32    
   3001300   294.07097     -31172.659      1291.4764     -24705.915     -6.3374971      707091.1     
   3001400   299.02618     -31138.589      1320.4792     -24555.637      8.8293358      706930.16    
   3001500   303.97572     -31168.578      1292.6934     -24526.307      45.809416      706976.14    
   3001600   300.23154     -31160.427      1336.4928     -24540.248     -46.757006      708620.3     
   3001700   299.18129     -31143.538      1354.2924     -24524.043     -58.785049      709444.36    
   3001800   301.5558      -31041.465      1291.1284     -24443.346      5.0263858      708801.66    
   3001900   303.17891     -31050.765      1325.979      -24389.23       8.9951083      708224.99    
   3002000   306.03812     -31113.864      1284.0036     -24443.987     -7.7686084      707766.47    
   3002100   298.55157     -31141.903      1289.7839     -24597.999      21.004331      707813.79    
   3002200   299.75494     -31143.483      1262.5484     -24605.637     -16.227363      708192.88    
   3002300   298.15316     -31126.232      1341.2625     -24537.861     -6.2295602      707715.48    
   3002400   301.20017     -31099.289      1348.5312     -24450.025     -7.7038606      707438.3     
   3002500   299.0006      -31087.417      1360.3527     -24465.042      9.2177426      708397.51    
   3002600   297.67638     -31055.136      1328.3484     -24488.069     -26.247051      709639.88    
   3002700   305.24641     -31124.315      1282.5875     -24469.787     -26.995989      709345.47    
   3002800   302.29108     -31052.118      1310.1086     -24422.079      16.518419      707915.79    
   3002900   306.12062     -31120.805      1367.2395     -24366.239      27.659349      707130.8     
   3003000   301.77493     -31062.939      1289.5472     -24462.544      43.929128      708337.13    
   3003100   298.97973     -31122.264      1294.0461     -24566.562     -92.56403       710036.9     
   3003200   297.84474     -31152.572      1356.817      -24554.074     -50.942927      708540.64    
   3003300   304.50881     -31178.394      1324.4768     -24494.958      63.610594      705836.64    
   3003400   300.95968     -31148.791      1333.4839     -24518.807      33.969146      706175.93    
   3003500   296.39577     -31203.181      1323.1818     -24663.818     -45.298848      708294.59    
   3003600   301.06148     -31188.817      1241.6201     -24648.905     -28.418596      708111.38    
   3003700   300.46237     -31165.609      1326.2929     -24551.568      49.082693      706720.57    
   3003800   302.46114     -31219.838      1353.0816     -24543.833      44.498132      706283.57    
   3003900   296.96336     -31133.227      1315.4364     -24591.621      1.4572324      707708.99    
   3004000   299.337       -31177.928      1291.8537     -24618.132     -56.705464      708217.77    
   3004100   300.42439     -31248.438      1339.1323     -24622.226      9.3285488      706335.94    
   3004200   299.18385     -31236.392      1341.1004     -24630.044      49.937912      705365.65    
   3004300   301.50386     -31276.361      1319.0145     -24651.27      -7.0936527      706704.11    
   3004400   296.62267     -31203.07       1358.0792     -24624.817     -43.365997      708455.37    
   3004500   297.316       -31099.016      1345.0914     -24521.549     -8.6732953      708332.4     
   3004600   303.15219     -31112.684      1292.6874     -24484.912      7.5834964      707351.67    
   3004700   299.78485     -31080.415      1283.5852     -24521.006      32.02705       707538.84    
   3004800   298.29101     -31144.843      1319.5986     -24575.71      -17.884526      707855.37    
   3004900   295.75343     -31146.32       1342.0782     -24599.365      23.887694      706612.61    
   3005000   298.56869     -31204.542      1350.2945     -24599.826      39.212927      705700.62    
   3005100   300.12279     -31189.596      1316.7474     -24591.077     -13.785584      706631.31    
   3005200   294.50295     -31013.091      1309.0082     -24521.213      70.408294      708111.73    
   3005300   301.52015     -30999.377      1319.6634     -24373.35       7.2338977      709378.28    
   3005400   299.60946     -30963.301      1305.5539     -24385.01       2.9031026      710537.27    
   3005500   301.77421     -31060.263      1306.9052     -24442.524     -41.898921      710160.04    
   3005600   293.55788     -31046.815      1337.625      -24542.952      39.230547      707689.63    
   3005700   295.53496     -31210.269      1331.2119     -24678.025     -1.6079479      706197.85    
   3005800   294.97907     -31226.734      1325.6888     -24709.796      22.909041      705285.8     
   3005900   295.91006     -31188.044      1331.8229     -24648.588      23.252749      705898.99    
   3006000   294.60908     -31011.343      1296.4261     -24530.179      63.087436      707238.21    
   3006100   303.89142     -31131.894      1260.5694     -24523.23      -42.863778      708453.21    
   3006200   302.969       -31119.085      1245.7946     -24541.429     -20.859211      707627.34    
   3006273   298.32413     -31148.198      1338.5929     -24559.487      9.6822991      706403.67    
Loop time of 1865.75 on 8 procs for 1000000 steps with 5905 atoms

Performance: 926.171 ns/day, 0.026 hours/ns, 535.979 timesteps/s
100.0% CPU use with 8 MPI tasks x 1 OpenMP threads

MPI task timing breakdown:
Section |  min time  |  avg time  |  max time  |%varavg| %total
---------------------------------------------------------------
Pair    | 626.12     | 663.15     | 731.73     | 129.7 | 35.54
Bond    | 17.831     | 21.292     | 24.821     |  59.7 |  1.14
Kspace  | 742.01     | 811.51     | 852.67     | 124.9 | 43.50
Neigh   | 141.55     | 142.15     | 142.42     |   2.6 |  7.62
Comm    | 73.687     | 98.831     | 113.26     | 146.2 |  5.30
Output  | 0.51256    | 0.52481    | 0.60316    |   4.1 |  0.03
Modify  | 103.39     | 120.43     | 147.05     | 147.3 |  6.45
Other   |            | 7.857      |            |       |  0.42

Nlocal:        738.125 ave         752 max         720 min
Histogram: 1 0 1 1 1 0 0 1 1 2
Nghost:         2020.5 ave        2062 max        1998 min
Histogram: 1 1 1 4 0 0 0 0 0 1
Neighs:        23692.1 ave       24391 max       22866 min
Histogram: 1 0 0 1 1 2 1 0 1 1

Total # of neighbors = 189537
Ave neighs/atom = 32.097714
Ave special neighs/atom = 2.0321761
Neighbor list builds = 100000
Dangerous builds = 100000
unfix fxnpt1

write_data end-mass.data
System init for write_data ...
PPPM initialization ...
  using 12-bit tables for long-range coulomb (src/kspace.cpp:342)
  G vector (1/distance) = 0.15941976
  grid = 18 18 18
  stencil order = 4
  estimated absolute RMS force accuracy = 0.0027011075
  estimated relative force accuracy = 8.134305e-06
  using double precision KISS FFT
  3d grid and FFT values/proc = 2744 972
Generated 0 of 6 mixed pair_coeff terms from geometric mixing rule
Total wall time: 1:23:40
