ITEM: TIMESTEP
100
ITEM: NUMBER OF ATOMS
216
ITEM: BOX BOUNDS pp pp pp
-3.0000000000000000e+00 3.0000000000000000e+00
-3.0000000000000000e+00 3.0000000000000000e+00
0.0000000000000000e+00 9.0000000000000000e+00
ITEM: ATOMS id type xs ys zs
1 1 0.495135 0.442826 0.077875
2 1 0.335749 0.517757 0.0237668
4 1 0.56911 0.438343 0.0526983
6 1 0.673802 0.459832 0.063822
8 1 0.684295 0.530867 0.0917103
10 1 0.725864 0.188846 0.865171
5 1 0.343979 0.593954 0.0275428
3 1 0.499229 0.552733 0.00991069
9 1 0.586493 0.417169 0.123344
7 1 0.487659 0.501601 0.0392398
11 1 0.650167 0.508737 0.0113294
12 1 0.148974 0.782295 0.0660214
13 1 0.39985 0.42923 0.0547598
15 1 0.420475 0.520027 0.0403603
17 1 0.475264 0.631439 0.0309355
19 1 0.574781 0.581941 0.000178032
21 1 0.595833 0.518285 0.0651444
22 1 0.593808 0.47784 0.794868
16 1 0.0836829 0.729554 0.0771502
14 1 0.520088 0.526575 0.0862559
20 1 0.667003 0.595972 0.132854
18 1 0.610282 0.458215 0.922524
23 1 0.570893 0.472522 0.985628
24 1 0.168198 0.689138 0.0436289
25 1 0.606533 0.479738 0.121026
26 1 0.615265 0.5774 0.0542801
27 1 0.586359 0.580531 0.113092
29 1 0.465587 0.547445 0.956907
28 1 0.556502 0.642915 0.0496767
31 1 0.497734 0.408355 0.153855
35 1 0.683749 0.465556 0.126532
39 1 0.477904 0.373768 0.101481
32 1 0.33992 0.483714 0.075434
36 1 0.60499 0.463666 0.199777
42 1 0.414387 0.412349 0.149297
46 1 0.509493 0.51046 0.14511
50 1 0.729043 0.39014 0.194352
43 1 0.522599 0.596743 0.0787308
47 1 0.607487 0.515798 0.295148
53 1 0.134634 0.653738 0.0765088
55 1 0.496485 0.579196 0.168004
58 1 0.671925 0.481813 0.190251
30 1 0.524449 0.466712 0.287004
33 1 0.699585 0.381113 0.241515
37 1 0.607636 0.445251 0.250503
34 1 0.346005 0.492906 0.115866
38 1 0.54337 0.398422 0.22419
40 1 0.656045 0.386177 0.181589
41 1 0.50564 0.4713 0.186204
44 1 0.442164 0.497061 0.119562
48 1 0.671356 0.471733 0.257644
51 1 0.618428 0.564608 0.244968
45 1 0.491979 0.403966 0.291163
49 1 0.423102 0.495813 0.17481
52 1 0.667641 0.54662 0.164244
54 1 0.577386 0.542156 0.172685
56 1 0.548849 0.536768 0.229744
57 1 0.593028 0.619981 0.206945
60 1 0.584721 0.489166 0.427004
64 1 0.563109 0.342882 0.163179
68 1 0.507532 0.31569 0.285428
61 1 0.15762 0.406648 0.345838
65 1 0.462447 0.401379 0.224917
71 1 0.238578 0.31199 0.297843
75 1 0.449185 0.391432 0.344326
79 1 0.49417 0.516048 0.239404
72 1 0.42934 0.603116 0.0846492
76 1 0.694616 0.527542 0.312442
82 1 0.734537 0.746353 0.524876
84 1 0.551331 0.578244 0.297341
87 1 0.62681 0.607717 0.345866
59 1 0.572753 0.361652 0.280629
62 1 0.566213 0.321246 0.208401
66 1 0.618545 0.318262 0.277363
63 1 0.22549 0.417633 0.296817
67 1 0.542381 0.372505 0.350214
69 1 0.579365 0.606105 0.431308
70 1 0.118168 0.308032 0.142428
73 1 0.530807 0.288029 0.335395
77 1 0.671464 0.559108 0.397422
80 1 0.715086 0.432891 0.339015
74 1 0.457484 0.502405 0.387787
78 1 0.587115 0.549427 0.388197
81 1 0.680782 0.423987 0.294353
83 1 0.457239 0.588345 0.357552
85 1 0.606719 0.661968 0.39513
86 1 0.638105 0.521178 0.348511
89 1 0.177159 0.318321 0.34272
93 1 0.437562 0.330576 0.299912
97 1 0.487019 0.368551 0.655211
90 1 0.586803 0.450423 0.345523
94 1 0.599611 0.419879 0.311684
100 1 0.223298 0.79084 0.348422
104 1 0.526819 0.537611 0.36368
108 1 0.580412 0.517479 0.58111
101 1 0.535944 0.631341 0.366209
105 1 0.586855 0.674799 0.340063
111 1 0.458324 0.621685 0.436023
113 1 0.507338 0.575894 0.423578
116 1 0.515241 0.68476 0.418845
88 1 0.440832 0.438105 0.566915
91 1 0.476361 0.447301 0.61294
95 1 0.484553 0.229541 0.543562
92 1 0.279331 0.420235 0.674364
96 1 0.527037 0.498096 0.643003
98 1 0.678739 0.485858 0.379273
99 1 0.368966 0.560738 0.589393
102 1 0.387421 0.503335 0.573643
106 1 0.60592 0.433049 0.40719
109 1 0.659477 0.56169 0.69402
103 1 0.245056 0.400668 0.639872
107 1 0.569601 0.724543 0.403547
110 1 0.52683 0.623768 0.490633
112 1 0.503826 0.501016 0.322735
114 1 0.511906 0.635741 0.707742
115 1 0.494584 0.530045 0.583632
118 1 0.17188 0.428686 0.279481
122 1 0.357368 0.38443 0.630732
126 1 0.391769 0.374959 0.570149
119 1 0.422282 0.562788 0.634011
123 1 0.534473 0.404517 0.566034
129 1 0.320013 0.423301 0.595495
133 1 0.532108 0.389564 0.602909
137 1 0.489375 0.510857 0.442679
130 1 0.401897 0.456266 0.632501
134 1 0.512229 0.624862 0.542255
140 1 0.212196 0.465999 0.588713
142 1 0.478023 0.58921 0.627759
145 1 0.634831 0.6404 0.672261
117 1 0.411414 0.332962 0.630007
120 1 0.281787 0.32903 0.639816
124 1 0.56225 0.400205 0.682167
121 1 0.250372 0.500641 0.6597
125 1 0.615539 0.420735 0.728878
127 1 0.66021 0.448485 0.666098
128 1 0.320714 0.49199 0.62046
131 1 0.253386 0.503069 0.762788
135 1 0.62942 0.56388 0.646742
138 1 0.604701 0.471458 0.640102
132 1 0.446083 0.506606 0.65825
136 1 0.466975 0.477082 0.740263
139 1 0.605819 0.372629 0.647277
141 1 0.456072 0.587736 0.695332
143 1 0.515833 0.49824 0.696442
144 1 0.543 0.582063 0.665873
147 1 0.381556 0.406785 0.731798
151 1 0.683684 0.361062 0.673656
155 1 0.647127 0.515232 0.747919
148 1 0.321032 0.502799 0.696467
152 1 0.704411 0.41209 0.724767
158 1 0.461033 0.409195 0.689396
162 1 0.352258 0.584476 0.659234
166 1 0.498285 0.731571 0.736389
159 1 0.390718 0.631186 0.736147
163 1 0.584743 0.59225 0.717011
169 1 0.333115 0.587765 0.75637
171 1 0.500577 0.556679 0.758264
174 1 0.6761 0.615321 0.745331
146 1 0.652995 0.529309 0.802383
176 1 0.448198 0.523133 0.888381
149 1 0.365877 0.427787 0.678076
180 1 0.695615 0.462151 0.783361
153 1 0.536165 0.381308 0.811554
184 1 0.603368 0.241522 0.943509
150 1 0.375176 0.441996 0.830232
177 1 0.42521 0.407057 0.774798
154 1 0.365587 0.498559 0.778042
181 1 0.651659 0.280118 0.858147
156 1 0.590433 0.48813 0.716693
157 1 0.304759 0.451999 0.760731
187 1 0.380208 0.524942 0.83494
160 1 0.455783 0.505947 0.81736
191 1 0.436978 0.557996 0.751109
164 1 0.571973 0.587973 0.594447
195 1 0.530559 0.462091 0.924937
167 1 0.582143 0.581509 0.772555
161 1 0.321095 0.552814 0.809945
188 1 0.513172 0.642544 0.766522
165 1 0.389274 0.522601 0.712161
192 1 0.529436 0.534715 0.804188
168 1 0.614832 0.669949 0.749411
198 1 0.48273 0.592951 0.824314
170 1 0.417136 0.61494 0.791397
200 1 0.579748 0.57966 0.850839
172 1 0.530732 0.439614 0.760707
203 1 0.553946 0.702056 0.791798
173 1 0.363954 0.780008 0.617406
175 1 0.604393 0.323764 0.903684
178 1 0.466431 0.44981 0.945134
182 1 0.525685 0.307476 0.865698
179 1 0.424444 0.452933 0.874096
183 1 0.543159 0.312102 0.941327
185 1 0.589576 0.466341 0.856059
186 1 0.476683 0.414088 0.798573
189 1 0.43611 0.428443 0.00497368
193 1 0.670146 0.203665 0.891415
196 1 0.517595 0.542157 0.900281
190 1 0.416141 0.595366 0.96679
194 1 0.601407 0.642005 0.895495
197 1 0.513434 0.46249 0.856359
199 1 0.52106 0.684918 0.834912
201 1 0.603906 0.550044 0.895903
202 1 0.38611 0.688127 0.832204
204 1 0.388272 0.564898 0.909489
206 1 0.494646 0.399255 0.860669
208 1 0.760122 0.252895 0.857027
205 1 0.376517 0.493701 0.988505
207 1 0.523301 0.44071 0.00485434
209 1 0.427569 0.617571 0.853232
211 1 0.504212 0.62941 0.943462
213 1 0.539679 0.385275 0.907088
210 1 0.486139 0.608872 0.895692
212 1 0.467042 0.688994 0.80228
214 1 0.473435 0.701709 0.869807
215 1 0.421659 0.670183 0.921898
216 1 0.593314 0.551885 0.944701
