ITEM: TIMESTEP
100
ITEM: NUMBER OF ATOMS
216
ITEM: BOX BOUNDS pp pp pp
-3.0000000000000000e+00 3.0000000000000000e+00
-3.0000000000000000e+00 3.0000000000000000e+00
0.0000000000000000e+00 9.0000000000000000e+00
ITEM: ATOMS id type xs ys zs
1 1 0.495135 0.442826 0.077875
2 1 0.335749 0.517757 0.0237668
4 1 0.56911 0.438343 0.0526983
6 1 0.673802 0.459832 0.063822
8 1 0.684295 0.530867 0.0917103
10 1 0.725864 0.188846 0.865171
5 1 0.343979 0.593954 0.0275428
3 1 0.499229 0.552733 0.00991069
9 1 0.586493 0.417169 0.123344
7 1 0.487659 0.501601 0.0392398
11 1 0.650167 0.508737 0.0113294
12 1 0.148974 0.782295 0.0660214
13 1 0.39985 0.42923 0.0547598
15 1 0.420475 0.520027 0.0403603
17 1 0.475264 0.631439 0.0309355
19 1 0.574781 0.581941 0.000178032
21 1 0.595833 0.518285 0.0651444
