
units real
dimension 3
boundary p p p
neighbor 0.3 bin
neigh_modify every 1 check yes

atom_style full
bond_style harmonic
angle_style cosine/squared
special_bonds lj/coul 0 1 1

read_data end.data
Reading data file ...
  orthogonal box = (-0.051247964 -0.051247964 -0.051247964) to (87.051248 87.051248 87.051248)
  2 by 2 by 2 MPI processor grid
  reading atoms ...
  5333 atoms
  reading velocities ...
  5333 velocities
  scanning bonds ...
  1 = max bonds/atom
  scanning angles ...
  1 = max angles/atom
  reading bonds ...
  3000 bonds
  reading angles ...
  2000 angles
Finding 1-2 1-3 1-4 neighbors ...
  special bond factors lj:    0        1        1       
  special bond factors coul:  0        1        1       
     2 = max # of 1-2 neighbors
     2 = max # of special neighbors
  special bonds CPU = 0.001 seconds
  read_data CPU = 0.042 seconds

pair_style hybrid/overlay lj/gromacs 9 12 coul/long 12

kspace_style pppm 1.0e-5
kspace_modify order 4

dielectric 80

set type 1 charge  -1
Setting atom values ...
  1000 settings made for charge
set type 3 charge  1
Setting atom values ...
  1000 settings made for charge
pair_coeff 1*3 1*3 coul/long

## In kJ/mol and Angstrom
# pair_coeff 1 1   5.0 4.7
# pair_coeff 1 2   2.0 6.2
# pair_coeff 1 3   5.6 4.7
# pair_coeff 1 4   5.6 4.7
# pair_coeff 2 2   3.5 4.7
# pair_coeff 2 3   2.0 6.2
# pair_coeff 2 4   2.0 4.7
# pair_coeff 3 3   5.0 4.7
# pair_coeff 3 4   5.6 4.7
# pair_coeff 4 4   5.0 4.7
# bond_coeff 1 1250 4.7
# angle_coeff 1 25 180

# In kcal/mol and Angstrom
pair_coeff 1 1 lj/gromacs  1.19 4.7
pair_coeff 1 2 lj/gromacs  0.48 6.2
pair_coeff 1 3 lj/gromacs  1.33 4.7
pair_coeff 1 4 lj/gromacs  1.33 4.7
pair_coeff 2 2 lj/gromacs  0.84 4.7
pair_coeff 2 3 lj/gromacs  0.48 6.2
pair_coeff 2 4 lj/gromacs  0.48 4.7
pair_coeff 3 3 lj/gromacs  1.19 4.7
pair_coeff 3 4 lj/gromacs  1.33 4.7
pair_coeff 4 4 lj/gromacs  1.19 4.7

bond_coeff 1 2.98 4.7
angle_coeff 1 5.97 180


dump        mydump  all atom 5000 sds-continue.lammpstrj

thermo              100
timestep 20

fix mom all momentum 1000 linear 1 1 1

fix fxnpt1 all npt temp 300 450 $(100*dt) iso 1 1 $(1000*dt) mtk yes
fix fxnpt1 all npt temp 300 450 2000 iso 1 1 $(1000*dt) mtk yes
fix fxnpt1 all npt temp 300 450 2000 iso 1 1 20000 mtk yes
run 100000
PPPM initialization ...
  using 12-bit tables for long-range coulomb (src/kspace.cpp:342)
  G vector (1/distance) = 0.16094687
  grid = 18 18 18
  stencil order = 4
  estimated absolute RMS force accuracy = 0.0027387087
  estimated relative force accuracy = 8.24754e-06
  using double precision KISS FFT
  3d grid and FFT values/proc = 2744 972
Generated 0 of 6 mixed pair_coeff terms from geometric mixing rule
Neighbor list info ...
  update every 1 steps, delay 10 steps, check yes
  max neighbors/atom: 2000, page size: 100000
  master list distance cutoff = 12.3
  ghost atom cutoff = 12.3
  binsize = 6.15, bins = 15 15 15
  2 neighbor lists, perpetual/occasional/extra = 2 0 0
  (1) pair lj/gromacs, perpetual
      attributes: half, newton on
      pair build: half/bin/newton
      stencil: half/bin/3d
      bin: standard
  (2) pair coul/long, perpetual, skip from (1)
      attributes: half, newton on
      pair build: skip
      stencil: none
      bin: none
Per MPI rank memory allocation (min/avg/max) = 8.782 | 8.788 | 8.805 Mbytes
   Step          Temp          E_pair         E_mol          TotEng         Press          Volume    
         0   295.63569     -25910.438      1566.8869     -19644.812      71.671558      660833.12    
       100   300.33231     -25989.539      1518.2234     -19697.93       20.71778       661301.96    
       200   298.7315      -26021.604      1490.7508     -19782.911     -47.03618       662601.56    
       300   299.04193     -26026.866      1494.4976     -19779.492     -15.255946      662954.85    
       400   304.34317     -25999.2        1515.597      -19646.47       3.7950347      661568.18    
       500   301.51109     -25926.326      1509.2863     -19624.919      42.201217      661483.96    
       600   296.76099     -25894.875      1551.241      -19627.01      -1.715915       663305.46    
       700   300.06657     -25839.747      1554.9753     -19515.61      -25.789726      665311.21    
       800   302.01117     -25751.566      1505.1895     -19446.308     -14.575129      666491.06    
       900   298.07433     -25688.298      1504.2102     -19446.59       2.1343732      666232.24    
      1000   305.24511     -25809.382      1519.728      -19438.186     -4.386982       664897.81    
      1100   300.65014     -25820.998      1558.2549     -19484.307      43.075887      663535.15    
      1200   298.46121     -25912.311      1577.2256     -19591.439      13.528494      663066.57    
      1300   292.63217     -25793.996      1532.9999     -19609.995      27.829088      663849.33    
      1400   298.06918     -25740.076      1517.9169     -19484.743      35.43838       665426.51    
      1500   303.21433     -25742.609      1501.1618     -19422.256     -28.443647      667660.67    
      1600   301.65509     -25603.086      1460.8036     -19347.873     -9.3782695      668133.98    
      1700   304.28513     -25688.174      1566.3338     -19285.63       10.564159      666833.81    
      1800   305.49895     -25760.608      1585.6699     -19319.436      1.8541021      665432.4     
      1900   303.31841     -25801.658      1529.953      -19450.859      11.508097      665175.66    
      2000   298.25066     -25817.281      1571.2541     -19505.727     -13.036952      665648.3     
      2100   297.83982     -25755.507      1533.6567     -19488.08       4.6495882      665694.93    
      2200   305.32101     -25837.495      1589.0345     -19395.786     -17.829358      665204.53    
      2300   308.20462     -25814.012      1545.8196     -19369.687      23.468985      665025.31    
      2400   300.58709     -25687.536      1511.1507     -19398.951      12.070855      666285.26    
      2500   300.43014     -25678.628      1527.4713     -19376.216     -37.47186       666770.45    
      2600   307.52409     -25693.843      1568.2488     -19237.905      15.866679      665661.99    
      2700   306.2894      -25721.654      1588.9082     -19264.681     -5.8534767      665047.38    
      2800   306.16738     -25788.323      1548.3449     -19373.852      0.71981868     664804.95    
      2900   300.79835     -25697.525      1491.8643     -19424.868      66.201466      664855.72    
      3000   301.55751     -25741.846      1536.2884     -19412.699     -2.7436213      664869.18    
      3100   302.16111     -25767.445      1572.658      -19392.335      12.181217      664392.56    
      3200   303.78417     -25755.112      1547.2765     -19379.587     -3.4502326      664777.8     
      3300   302.10012     -25730.661      1564.5701     -19364.608     -5.4841616      665654.12    
      3400   305.15669     -25703.098      1552.7743     -19300.261     -35.224115      666115.51    
      3500   309.88892     -25678.169      1559.8801     -19193.013      6.2099988      666499.63    
      3600   306.20148     -25634.24       1567.0108     -19200.561     -56.176153      667041.99    
      3700   302.45546     -25630.803      1582.1726     -19241.5        22.658733      666536.74    
      3800   308.35009     -25724.089      1546.4513     -19276.82       6.8909603      665522.71    
      3900   304.92277     -25754.501      1528.7975     -19379.359     -25.196686      664826.28    
      4000   299.059       -25756.895      1529.3424     -19474.405      43.184099      664300.65    
      4100   306.06142     -25786.902      1516.3525     -19406.107      34.719942      664341.38    
      4200   300.18195     -25711.229      1630.3516     -19309.882      4.6033576      665885.34    
      4300   304.39863     -25644.769      1535.2238     -19271.531      7.6143203      667094.08    
      4400   305.47364     -25605.174      1555.8125     -19194.261      6.0099405      666965.41    
      4500   307.27826     -25606.435      1568.4367     -19154.216      56.552228      666963.94    
      4600   307.69694     -25604.064      1537.655      -19175.972     -30.741763      668616.37    
      4700   304.93958     -25625.269      1485.1344     -19293.522     -34.879415      668523.55    
      4800   304.17605     -25728.051      1547.1442     -19346.43      -17.335176      665913.08    
      4900   310.31474     -25700.096      1511.2277     -19256.825      114.50784      662810.96    
      5000   311.98974     -25720.032      1579.557      -19181.81       56.497736      664142.08    
      5100   304.31466     -25627.909      1588.0383     -19203.191     -47.006367      668721.44    
      5200   305.03455     -25544.22       1540.2431     -19155.855     -82.93777       671365.18    
      5300   308.04516     -25522.251      1519.2554     -19107.025     -30.353023      669693.7     
      5400   306.16686     -25563.494      1595.65       -19101.726      43.286153      666836.64    
      5500   312.18392     -25629.882      1536.672      -19131.458      35.979294      665559       
      5600   310.15508     -25712.23       1562.6706     -19220.054     -28.908875      666301.21    
      5700   306.41435     -25639.016      1528.195      -19240.769     -34.932743      668123.99    
      5800   307.00869     -25509.22       1538.7937     -19090.928     -30.087996      669232.28    
      5900   307.22603     -25451.901      1538.1524     -19030.797      32.896043      668737.49    
      6000   308.08958     -25460.583      1561.0689     -19002.837      45.890913      667922.76    
      6100   308.50739     -25557.962      1587.8482     -19066.796      5.8162251      667815.99    
      6200   301.14835     -25553.289      1581.2268     -19185.707     -16.899527      667316.03    
      6300   309.98812     -25674.147      1555.2413     -19192.054     -11.888134      665751.24    
      6400   307.28434     -25624.886      1581.2227     -19159.784      65.325861      664467.88    
      6500   311.02007     -25630.225      1529.332      -19157.64       43.825208      665946.19    
      6600   309.00857     -25595.201      1532.3393     -19151.579     -34.215659      668443.16    
      6700   307.76449     -25507.912      1517.2094     -19099.193     -53.701257      669368.92    
      6800   309.25685     -25520.7        1572.7088     -19032.762      15.366836      668442.46    
      6900   306.84455     -25476.226      1595.0798     -19004.257      17.415789      668612.59    
      7000   309.44351     -25459.76       1540.2318     -19001.333      1.0976857      669670.49    
      7100   310.7358      -25524.291      1608.0065     -18977.55      -70.209477      670440.13    
      7200   314.48375     -25444.705      1605.7988     -18840.602      24.848877      669978.64    
      7300   317.97551     -25445.954      1607.0265     -18785.127     -46.136206      671340.24    
      7400   307.46733     -25274.142      1548.4194     -18838.936      25.616811      672719.63    
      7500   311.95151     -25348.17       1521.9364     -18868.176     -38.377108      672768.61    
      7600   314.59491     -25434.221      1576.9127     -18857.238     -3.9164495      671006.66    
      7700   317.09968     -25539.13       1581.7741     -18917.476      3.8417173      669379.74    
      7800   304.0146      -25433.283      1552.8464     -19048.526      57.881264      668830.47    
      7900   308.71072     -25582.224      1610.0366     -19065.639     -39.603503      668768.9     
      8000   311.92926     -25506.862      1566.227      -18982.931      24.87231       668202.73    
      8100   310.63391     -25456.71       1613.5365     -18906.058      57.024292      669201.81    
      8200   309.45832     -25361.864      1535.1242     -18908.309      18.17831       671889.99    
      8300   310.2397      -25325.45       1515.3253     -18879.275     -46.139586      673477.94    
      8400   315.27371     -25333.341      1529.3069     -18793.175      55.610935      672656.69    
      8500   314.74633     -25308.258      1548.9754     -18756.805      14.633646      672476.14    
      8600   316.59233     -25359.18       1542.2072     -18785.156     -12.09177       672678.78    
      8700   313.33423     -25360.881      1563.116      -18817.731     -41.567945      672952.1     
      8800   314.19495     -25346.874      1522.9399     -18830.22      -8.5926355      672054.53    
      8900   312.45279     -25361.659      1598.5792     -18797.056      64.029351      670305.35    
      9000   315.83161     -25377.861      1584.3111     -18773.823      33.028878      670485.78    
      9100   315.50136     -25412.776      1560.1411     -18838.158     -14.960832      672548.12    
      9200   311.1754      -25379.784      1530.4803     -18903.581     -51.501972      673519.63    
      9300   311.25341     -25394.969      1607.3875     -18840.62      -1.1773522      672279.86    
      9400   317.86616     -25340.958      1560.0669     -18728.828      28.899994      671436.46    
      9500   318.71939     -25409.464      1606.2485     -18737.591     -7.7357773      672764.31    
      9600   306.39118     -25262.821      1628.9764     -18764.162     -30.042912      674785.29    
      9700   312.69506     -25208.873      1590.6754     -18648.323      19.511091      675159.43    
      9800   315.94865     -25193.552      1607.9057     -18564.06      -26.212564      675083.93    
      9900   313.97524     -25185.232      1611.0626     -18583.948      25.307959      674470.17    
     10000   313.85801     -25257.73       1579.3268     -18690.044     -19.162421      673625.48    
     10100   312.56675     -25314.227      1568.0402     -18778.351      31.681397      672250.45    
     10200   317.09576     -25385.833      1550.606      -18795.409     -4.3539867      671594.75    
     10300   311.94821     -25331.153      1578.9779     -18794.17       6.265635       671353.85    
     10400   311.83069     -25360.582      1629.3515     -18775.094      5.2523958      671706.9     
     10500   314.60037     -25369.735      1622.771      -18746.807      8.8489152      672316.47    
     10600   315.76947     -25265.844      1511.7149     -18735.39       20.987323      673137.74    
     10700   314.38628     -25283.357      1576.9192     -18709.683     -8.8515054      673724.94    
     10800   317.27018     -25266.934      1579.2357     -18645.108     -16.954317      673903.84    
     10900   319.76274     -25276.249      1565.1452     -18628.897     -4.2829324      673500.06    
     11000   315.62846     -25255.862      1594.7743     -18644.59       20.900989      673108.43    
     11100   318.35467     -25272.265      1557.9719     -18654.466     -32.569254      673821.33    
     11200   316.4212      -25194.779      1505.7147     -18659.967      28.814494      674465.21    
     11300   316.24193     -25229.409      1609.1267     -18594.034     -21.574649      674500.52    
     11400   322.45624     -25198.189      1589.096      -18484.077      19.537472      673855.64    
     11500   319.36248     -25176.74       1579.9809     -18520.914     -22.155526      674973.89    
     11600   312.44199     -25140.417      1563.2949     -18611.269     -28.286633      675503.86    
     11700   316.89601     -25224.727      1544.1389     -18643.945      21.130521      673761.2     
     11800   317.40615     -25328.447      1626.1603     -18657.535      7.1049864      671537.08    
     11900   322.20072     -25315.784      1535.3108     -18659.518      12.947451      671963.38    
     12000   315.02588     -25266.484      1600.373      -18659.191     -58.772281      674040.4     
     12100   319.35014     -25235.217      1594.8367     -18564.731     -15.085696      674910.89    
     12200   320.14506     -25186.026      1608.5116     -18489.232      9.6663691      674948.33    
     12300   321.33275     -25264.703      1650.9548     -18506.588      4.0794453      675443.91    
     12400   321.06474     -25241.05       1585.246      -18552.904     -73.244728      676674.59    
     12500   316.75024     -25188.813      1584.6878     -18569.798     -27.636388      676278.94    
     12600   320.67357     -25159.468      1501.4652     -18561.32       77.918902      674848.3     
     12700   318.52007     -25171.345      1557.6842     -18551.205      0.86392559     675167.83    
     12800   318.92047     -25149.422      1566.7314     -18513.871     -39.848944      676318.15    
     12900   319.84086     -25127.817      1562.3983     -18481.971     -16.499425      676616       
     13000   323.33194     -25107.096      1548.9648     -18419.197      39.321881      676297.4     
     13100   325.36547     -25086.661      1609.9257     -18305.481      6.0347104      676777.93    
     13200   322.04151     -25008.508      1559.7127     -18330.371      26.527487      677752.58    
     13300   317.89572     -25113.711      1568.9479     -18492.231     -81.810481      678530.42    
     13400   316.01274     -25125.226      1580.3355     -18522.285     -6.8806256      676235.28    
     13500   321.99899     -25209.047      1594.2507     -18497.047      28.602981      673522.38    
     13600   323.27934     -25201.26       1578.4131     -18484.749      10.813338      673193.66    
     13700   318.46769     -25156.368      1611.2187     -18483.526     -20.780121      676112.65    
     13800   321.28348     -25014.411      1531.3038     -18376.731     -61.263117      679055.04    
     13900   321.39399     -25051.315      1659.8427     -18283.339     -20.68228       679431.12    
     14000   324.21895     -25010.804      1599.2616     -18258.51      -27.128641      678793.38    
     14100   324.08319     -25072.825      1600.3531     -18321.598      32.095266      677283.78    
     14200   317.89771     -25124.971      1612.5946     -18459.813      39.664475      676994.66    
     14300   316.98822     -25082.99       1591.9165     -18452.964      30.532866      677004.07    
     14400   321.26671     -25128.292      1629.7234     -18392.459     -35.399253      677270.97    
     14500   320.56151     -25044.419      1600.2743     -18349.243     -7.1248356      677462.9     
     14600   319.49981     -25049.299      1616.9344     -18354.337      16.971367      677944.58    
     14700   320.90582     -25057.941      1624.4493     -18333.118     -34.985938      679141.26    
     14800   325.60784     -24913.899      1565.7329     -18173.059      67.230071      679556.85    
     14900   329.32094     -24936.593      1541.6645     -18160.807     -8.0244079      681263.94    
     15000   322.2696      -24941.776      1604.2169     -18215.509     -83.997075      682748.67    
     15100   321.42039     -24947.355      1630.0776     -18208.725     -28.728611      682032.14    
     15200   328.93686     -24900.017      1605.7655     -18066.235      37.796597      680694.82    
     15300   327.77886     -24893.047      1616.319      -18067.116      6.7956669      681026.64    
     15400   324.16169     -24877.425      1552.4953     -18172.808      10.38364       681606.91    
     15500   323.76802     -24970.499      1605.605      -18219.029     -21.684859      681303.25    
     15600   318.83967     -24934.98       1627.0349     -18240.41       49.165002      679268.56    
     15700   326.76112     -25097.357      1607.915      -18296.006      27.107934      677762.48    
     15800   317.26085     -25090.811      1591.9356     -18456.433      39.779952      678142.16    
     15900   318.55287     -25104.244      1584.5979     -18456.669     -57.051211      678478.95    
     16000   322.74308     -25091.394      1611.6622     -18350.157      2.0049761      677442.22    
     16100   322.98753     -25086.747      1647.9494     -18305.338      18.575523      677121.94    
     16200   320.5092      -24993.466      1619.376      -18280.019      37.303491      678042.5     
     16300   322.87013     -24984.107      1651.9417     -18200.571     -53.578097      680461.05    
     16400   323.24331     -24880.603      1646.0215     -18097.056      0.12638399     681031.69    
     16500   329.07526     -24947.357      1612.1885     -18104.951      1.2161291      680373.17    
     16600   321.16293     -24920.15       1643.2177     -18172.472      42.834912      679806.42    
     16700   323.21486     -24981.318      1600.4044     -18243.841      19.524758      678909.81    
     16800   329.34907     -25124.684      1621.0462     -18269.069      17.777071      677889.25    
     16900   327.37495     -25110.37       1614.597      -18292.58       21.009638      677728.08    
     17000   328.48153     -25112.033      1598.4895     -18292.763     -10.436338      678279.36    
     17100   330.04816     -25095.417      1568.5919     -18281.145     -5.0955562      679241.51    
     17200   327.32807     -24996.984      1606.8405     -18187.696     -50.554665      680711.45    
     17300   328.40404     -24943.461      1624.8296     -18099.083     -20.9739        680772.1     
     17400   328.73583     -24959.866      1621.8015     -18113.243     -14.808949      679825.32    
     17500   328.50104     -25061.072      1655.8275     -18184.154     -24.215198      678455.2     
     17600   327.80959     -25078.076      1617.1938     -18250.782     -26.501725      678214.46    
     17700   327.49425     -24999.434      1504.5273     -18289.819      45.867037      678935.1     
     17800   329.55433     -25016.822      1618.048      -18160.944     -8.6774383      680225.29    
     17900   329.72539     -24972.04       1647.7564     -18083.734     -10.341383      681637.75    
     18000   322.20164     -24806.384      1621.2025     -18064.212      1.3717378      682562.32    
     18100   333.41386     -24891.511      1630.9839     -17961.355     -31.537385      682153.22    
     18200   331.0643      -24893.694      1705.7289     -17926.135      40.440573      681326.88    
     18300   329.34598     -24828.598      1625.6478     -17968.43      -28.165876      683084.31    
     18400   324.05593     -24823.853      1684.3446     -17989.067     -39.024985      684429.07    
     18500   324.16632     -24773.515      1657.4327     -17963.887     -0.48799216     683765.04    
     18600   329.71399     -24770.559      1611.3607     -17918.83       49.037461      682497.35    
     18700   334.47098     -24785.261      1609.62       -17859.666     -15.619536      682351.4     
     18800   337.20594     -24817.178      1704.8494     -17752.886     -6.5329118      682227.27    
     18900   325.78229     -24689.389      1684.897      -17826.612      43.166444      683514.58    
     19000   320.44745     -24683.091      1648.3218     -17941.68      -46.415557      685873.18    
     19100   321.30472     -24665.726      1645.3991     -17913.613     -1.5621673      684864.29    
     19200   328.1222      -24829.15       1734.4283     -17879.653      7.1527702      682372.87    
     19300   330.4216      -24875.741      1714.1341     -17909.992      21.618123      680077.06    
     19400   327.58169     -24792.736      1610.8731     -17975.385      63.981146      680472.57    
     19500   326.53235     -24784.296      1620.5296     -17973.966     -50.831231      683165.17    
     19600   328.75699     -24773.829      1665.7998     -17882.872     -37.413357      683727.26    
     19700   330.12988     -24734.9        1649.2168     -17838.705      6.3068125      682955.52    
     19800   331.60355     -24763.636      1647.2983     -17845.937      57.836011      682398.27    
     19900   328.76513     -24752.364      1658.6102     -17868.466      10.643253      683500.1     
     20000   331.76492     -24757.287      1655.413      -17828.908     -43.129217      684537.76    
     20100   334.72095     -24743.952      1731.1685     -17692.836      0.65228195     684011.4     
     20200   333.37116     -24658.01       1657.7885     -17701.728      56.407649      684548.73    
     20300   328.49975     -24649.692      1646          -17782.622     -14.842837      687095.74    
     20400   328.72864     -24670.745      1625.9767     -17820.06      -58.805005      687934.28    
     20500   329.14645     -24721.318      1725.1546     -17764.815     -16.863314      685422.1     
     20600   331.12742     -24693.178      1725.4448     -17704.9        42.240013      683310.38    
     20700   336.28624     -24770.596      1648.6896     -17777.081      28.173999      684219.99    
     20800   328.21598     -24735.887      1638.3326     -17880.994     -58.885064      686260.95    
     20900   329.95201     -24679.996      1608.0609     -17827.784     -17.448243      685739.39    
     21000   331.34805     -24625.434      1593.5389     -17765.555      69.986895      683886.7     
     21100   329.51756     -24693.954      1683.3077     -17773.4        40.388223      683488.91    
     21200   328.0741      -24719.478      1718.9782     -17786.196     -25.149846      684499.07    
     21300   332.79385     -24711.899      1632.5187     -17790.061     -28.546516      685228.77    
     21400   332.94782     -24662.494      1620.2655     -17750.462      16.553155      684578       
     21500   332.25629     -24631.732      1674.1341     -17676.823      49.733478      683814.59    
     21600   335.62257     -24664.892      1650.7449     -17679.869      23.20373       684938.46    
     21700   329.21116     -24636.184      1626.8825     -17776.925     -35.069652      686834.9     
     21800   327.18041     -24689.252      1646.2935     -17842.858     -29.390414      686006.23    
     21900   335.28465     -24685.422      1638.8932     -17717.622      65.076773      683630.87    
     22000   336.87688     -24703.686      1686.2496     -17663.224      1.5570859      684663.78    
     22100   329.64587     -24597.488      1688.7633     -17669.439     -41.218755      688672.89    
     22200   330.60673     -24533.04       1681.7631     -17596.72      -67.223982      690874.42    
     22300   335.62044     -24490.539      1676.5321     -17479.763     -54.309103      690558.6     
     22400   331.32035     -24398.968      1658.8234     -17474.245      99.107772      688794.82    
     22500   330.50542     -24457.817      1702.8026     -17502.067      16.077493      688510.57    
     22600   333.85711     -24525.66       1638.5443     -17580.898      9.1289038      688313.26    
     22700   330.43945     -24603.782      1644.059      -17707.825     -8.3818745      687211.64    
     22800   331.03068     -24667.023      1635.5411     -17770.186      3.0003148      685030.52    
     22900   339.23916     -24723.646      1695.6294     -17636.259      29.526642      683696.83    
     23000   333.84621     -24539.139      1676.9471     -17556.148      72.142624      685844.63    
     23100   332.76337     -24529.356      1691.627      -17548.895     -26.859895      690081.75    
     23200   331.61037     -24364.522      1641.9057     -17452.107     -76.766143      692718.52    
     23300   334.93361     -24320.011      1644.739      -17351.945     -8.0968131      691334.45    
     23400   337.20069     -24372.622      1666.8264     -17346.436      39.426797      689183.88    
     23500   338.00328     -24495.991      1665.3331     -17458.542     -4.1762101      687929.82    
     23600   335.41767     -24555.878      1665.4199     -17559.437     -21.666187      687071.84    
     23700   332.3167      -24583.076      1740.1282     -17561.213      10.716352      686232.36    
     23800   328.95063     -24450.192      1719.3854     -17502.57       38.235163      686985.82    
     23900   333.10796     -24462.106      1703.7611     -17464.034     -7.4980737      688603.88    
     24000   337.19636     -24430.862      1628.7183     -17442.853      18.663816      689213.28    
     24100   332.5007      -24399.138      1686.7539     -17427.724      8.1355542      689233.98    
     24200   345.3018      -24523.474      1613.8133     -17421.545     -20.042765      689535.37    
     24300   334.37749     -24447.975      1701.2898     -17432.197     -23.984765      690217.69    
     24400   334.05649     -24482.393      1721.1858     -17451.82      -7.6733909      689690.75    
     24500   334.24949     -24426.272      1686.8016     -17427.016      39.464894      689299.74    
     24600   336.15515     -24456.588      1704.0591     -17409.787      26.848485      689083.86    
     24700   337.13164     -24444.859      1687.7653     -17398.832     -22.934405      690130.27    
     24800   332.7613      -24356.044      1705.269      -17361.974     -5.3377566      691539.03    
     24900   335.9952      -24282.256      1695.5355     -17246.52       12.045089      692769.5     
     25000   341.64471     -24308.738      1681.9461     -17196.801     -16.04557       693152.46    
     25100   337.83954     -24307.213      1717.0004     -17220.699     -6.9915893      693073.9     
     25200   337.92319     -24408.442      1717.7659     -17319.833     -32.086465      691988.57    
     25300   336.55095     -24515.843      1686.5699     -17480.24      -21.951654      689525.82    
     25400   336.78652     -24527.402      1686.4474     -17488.178      42.403093      686841.58    
     25500   342.58675     -24614.769      1725.0328     -17444.772      26.48294       686351.07    
     25600   336.06765     -24479.647      1766.2552     -17372.04       39.468716      688277.93    
     25700   342.70767     -24370.34       1685.3819     -17238.072     -38.292023      692263.15    
     25800   341.58032     -24319.361      1711.5809     -17178.812     -137.75115      694927.05    
     25900   342.20598     -24351.389      1758.5144     -17153.962     -31.687326      692982.91    
     26000   347.70566     -24447.352      1699.7761     -17221.254     -25.428148      690926.49    
     26100   336.05122     -24430.34       1679.724      -17409.526      36.005183      689796.56    
     26200   333.41861     -24395.788      1679.8768     -17416.663      4.2929639      689395.23    
     26300   344.29817     -24473.789      1670.3951     -17331.23      -4.6311578      688122.21    
     26400   338.28712     -24430.012      1758.18       -17295.205      23.699166      687558.95    
     26500   338.49875     -24322.901      1656.589      -17286.322      22.23076       689794.18    
     26600   342.98191     -24396.684      1728.2754     -17217.165     -51.521185      692164.47    
     26700   346.61406     -24286.62       1674.0474     -17103.599     -26.5658        692894.13    
     26800   339.76275     -24239.458      1715.7508     -17123.627     -3.0754183      692747.4     
     26900   346.68556     -24352.665      1647.9735     -17194.582     -12.187035      691416.41    
     27000   335.425       -24427.52       1742.1495     -17354.234     -5.5681323      689480.16    
     27100   333.35775     -24436.119      1719.255      -17418.582      31.829629      688260.32    
     27200   333.07033     -24440.397      1765.2381     -17381.445      6.177826       689140.97    
     27300   339.63713     -24411.445      1718.4944     -17294.867     -40.877578      690615.78    
     27400   338.05193     -24272.587      1654.9259     -17244.773      28.675002      691287.46    
     27500   344.12747     -24289.586      1663.4656     -17156.669     -39.23825       692500.42    
     27600   339.1089      -24150.994      1681.269      -17080.037      33.959102      693186.82    
     27700   340.06971     -24148.132      1679.1276     -17064.045      15.743771      694426.64    
     27800   338.80428     -24099.512      1691.72       -17022.945      23.963238      695585.8     
     27900   344.80202     -24114.434      1773.9638     -16860.297     -14.392545      695973.61    
     28000   342.46158     -24073.646      1746.6855     -16883.986      1.3145039      696546.21    
     28100   341.70805     -24136.998      1715.6182     -16990.381     -18.656878      697210.83    
     28200   341.2149      -24192.758      1704.5485     -17065.049     -15.175352      696061.26    
     28300   343.37594     -24275.64       1714.2722     -17103.861     -7.6588347      693697.9     
     28400   343.03277     -24351.885      1759.4224     -17140.41      -21.077149      692292.1     
     28500   338.528       -24412.158      1772.8198     -17258.883     -52.92352       692177.05    
     28600   333.88378     -24389.202      1722.4857     -17360.075     -20.42536       692072.67    
     28700   340.36426     -24316.541      1658.9597     -17247.941      21.166337      691408.85    
     28800   343.98903     -24330.899      1718.9192     -17144.729      19.945286      691218.16    
     28900   339.87399     -24276.441      1776.4529     -17098.14       4.8396076      692825.05    
     29000   339.37909     -24150.854      1736.9653     -17019.906      5.5964509      695729.18    
     29100   344.74255     -24091.292      1696.2802     -16915.784     -16.509488      697894.05    
     29200   345.14788     -24127.276      1751.3338     -16890.273     -20.24062       697676.84    
     29300   347.27534     -24128.259      1704.0256     -16904.751      7.4754779      697225.02    
     29400   343.46825     -24113.664      1676.3168     -16978.373     -4.4435604      697453.22    
     29500   336.9326      -24181.626      1695.0725     -17131.454     -50.841573      696425.69    
     29600   337.3702      -24239.925      1743.2671     -17134.604      23.257716      693170.7     
     29700   342.73907     -24163.321      1759.7209     -16956.215      110.12821      691842.65    
     29800   340.63958     -24119.66       1749.9691     -16955.675      42.104789      694736.99    
     29900   343.51745     -24137.182      1713.4306     -16963.995     -52.044457      698114.67    
     30000   343.3166      -24031.907      1710.705      -16864.638     -17.774617      698297.07    
     30100   348.7456      -24112.71       1766.9144     -16802.945      11.100234      696327.48    
     30200   347.82984     -24148.135      1745.0902     -16874.749      39.446386      694888.97    
     30300   341.04639     -24173.754      1787.0192     -16966.253     -17.168338      694895.47    
     30400   343.24204     -24145.307      1688.2103     -17001.717     -4.9112336      695391.56    
     30500   346.80971     -24178.962      1704.8174     -16962.063     -6.4394754      695575.27    
     30600   345.30474     -24086.786      1734.7779     -16863.846     -14.405512      697020.52    
     30700   345.94319     -24040.538      1698.7307     -16843.497      23.783474      697717.5     
     30800   349.60079     -24074.724      1669.9526     -16848.328      0.91173409     697276.16    
     30900   345.15912     -24050.966      1711.6968     -16853.42       20.688552      696068.75    
     31000   346.87906     -24090.43       1715.106      -16862.139      20.320917      694818.75    
     31100   345.15502     -24040.62       1667.8113     -16887.025      65.433507      695073.86    
     31200   343.61526     -24083.315      1753.1616     -16868.842      9.0620416      697322.14    
     31300   344.58459     -23944.999      1708.1872     -16760.095     -27.988947      699237.13    
     31400   350.13184     -23991.964      1737.7018     -16689.379     -12.679123      698982.71    
     31500   350.07136     -23999.499      1716.9978     -16718.579      2.423469       697670.79    
     31600   348.07052     -24128.779      1760.6169     -16836.041     -44.967014      696909.05    
     31700   347.18849     -24261.03       1751.6233     -16991.304     -34.555046      695193.61    
     31800   347.10181     -24281.183      1778.2758     -16986.182      3.6118169      693184.43    
     31900   348.20602     -24257.025      1792.8045     -16929.945      21.108725      692731.42    
     32000   345.28884     -24127.658      1756.8498     -16882.898      20.608898      694815.05    
     32100   343.31465     -24008.477      1803.0481     -16748.896     -5.0663964      697892.77    
     32200   350.35053     -23973.773      1748.8842     -16656.529     -41.114052      700454.57    
     32300   345.81122     -23875.984      1732.7037     -16647.068      16.365211      701014.41    
     32400   350.24417     -23987.705      1769.4393     -16651.597     -31.75316       700407.21    
     32500   349.61884     -24039.492      1768.3314     -16714.431     -23.509367      698733.95    
     32600   351.67556     -24149.423      1700.6453     -16859.359      17.236186      696125.12    
     32700   345.01192     -24135.181      1724.0438     -16927.628      64.378162      694808.51    
     32800   341.94086     -24140.975      1803.5483     -16902.728     -33.576248      695934.46    
     32900   345.11448     -23996.629      1709.8245     -16801.666     -7.5824431      697640.49    
     33000   349.06928     -24068.458      1778.6869     -16741.776     -95.378549      698702.83    
     33100   353.63753     -24078.1        1773.9133     -16683.586      19.618003      697477.55    
     33200   356.05465     -24032.988      1699.0035     -16674.966      38.6128        697467.97    
     33300   349.35784     -24001.302      1713.3116     -16735.409     -38.35292       700072       
     33400   339.07346     -23880.608      1724.9639     -16766.519      29.300972      701455.09    
     33500   354.36728     -23971.359      1700.6833     -16638.476     -37.187953      700225.57    
     33600   359.42199     -24060.138      1760.2879     -16587.312     -33.290576      697911.44    
     33700   351.99423     -24054.832      1803.4203     -16656.928      38.114739      697102.36    
     33800   351.31126     -24133.02       1770.2445     -16779.146     -6.3296336      698618.8     
     33900   346.66909     -23973.752      1687.9869     -16775.918     -29.657217      700130.67    
     34000   345.57072     -23966.389      1748.2003     -16725.799     -18.131047      699578.97    
     34100   354.65436     -24066.869      1769.3443     -16660.762     -5.6969433      698129.29    
     34200   352.91769     -23965.54       1731.6746     -16624.705      50.268297      697846.81    
     34300   345.86281     -23955.578      1798.9767     -16659.569      0.67959935     699265.07    
     34400   346.25518     -24070.624      1767.8229     -16799.532     -98.689803      700598.2     
     34500   348.73085     -24084.055      1699.2165     -16842.223     -42.918557      698567.26    
     34600   354.77227     -24119.491      1739.6166     -16741.238      67.990938      695126.99    
     34700   350.72185     -24008.774      1746.5386     -16687.975      93.346385      695401.17    
     34800   344.78566     -23941.257      1766.5021     -16694.843     -27.438945      699782.73    
     34900   348.59005     -23875.285      1718.362      -16616.544     -54.638195      704169.8     
     35000   347.72867     -23805.037      1734.1616     -16544.187     -23.888942      704015.24    
     35100   356.79346     -23870.348      1724.8865     -16474.701      29.127553      700680.59    
     35200   355.48092     -23969.106      1800.0672     -16519.139      54.015119      698765.46    
     35300   350.58908     -23972.235      1745.7638     -16654.321      21.644481      699478.48    
     35400   349.14168     -23975.614      1719.4507     -16707.017     -12.519988      701068.21    
     35500   354.24484     -23964.234      1703.4344     -16630.546     -28.736634      701185.08    
     35600   355.43397     -24007.611      1764.8517     -16593.606     -48.611095      700278.08    
     35700   354.51001     -23977.015      1727.7523     -16614.795      33.462015      698663.78    
     35800   353.22816     -24045.238      1757.3728     -16673.77       21.167721      698133.45    
     35900   345.02613     -24054.583      1793.0216     -16777.826     -23.433147      697810.18    
     36000   349.08907     -24076.698      1706.8705     -16821.518      25.583389      696909.37    
     36100   354.31931     -24042.971      1749.3256     -16662.208      35.680119      697070.68    
     36200   353.6516      -23991.64       1766.9263     -16603.888     -4.9681283      698547.43    
     36300   358.7814      -24059.912      1783.3478     -16574.207     -52.070558      699955.51    
     36400   357.04106     -23969.345      1782.8988     -16511.75      -62.51825       700920.38    
     36500   355.67734     -23794.773      1753.7924     -16387.959      33.448722      701215.82    
     36600   352.64311     -23807.978      1817.7846     -16385.397      12.869622      701386       
     36700   350.22669     -23801.01       1806.07       -16428.549      6.5794475      701760.64    
     36800   356.80349     -23889.983      1753.1992     -16465.864     -93.30608       702209.85    
     36900   350.08732     -23930.912      1812.8382     -16553.898     -24.318134      700464.77    
     37000   354.87203     -24013.449      1742.8639     -16630.363      28.268574      697358.05    
     37100   353.49425     -24021.566      1755.8364     -16647.406      65.758876      696052.15    
     37200   358.20055     -24030.31       1783.5065     -16553.679     -42.500553      699653.77    
     37300   356.87578     -23863.379      1746.0913     -16445.218     -70.952012      704394.47    
     37400   358.32137     -23775.309      1711.5974     -16368.667     -52.30552       706935.79    
     37500   353.61807     -23692.785      1772.6083     -16299.885     -27.947865      706675.53    
     37600   358.43963     -23696.362      1757.9338     -16241.503     -11.372235      705203.84    
     37700   358.29525     -23758.034      1825.3611     -16238.043      33.845455      703137.33    
     37800   357.89979     -23863.741      1823.7846     -16351.612      23.088564      702513.63    
     37900   343.53575     -23756.404      1800.2344     -16496.122      0.4612052      704440.2     
     38000   351.2453      -23766.366      1752.8541     -16430.932     -22.792094      705652.53    
     38100   357.82847     -23822.885      1826.8656     -16308.809      3.3498753      704395.32    
     38200   359.87494     -23805.254      1838.3704     -16247.147     -4.8609277      703148.66    
     38300   359.56592     -23812.202      1784.5663     -16312.811     -13.335239      703124.06    
     38400   352.22941     -23846.132      1824.2133     -16423.698     -0.040408971    703826.17    
     38500   354.98727     -23784.486      1749.1269     -16393.305      14.24738       704492.58    
     38600   360.48277     -23709.247      1774.1893     -16205.66      -12.589674      705231.32    
     38700   353.28842     -23584.895      1781.0296     -16188.813      13.347504      706666.14    
     38800   356.89724     -23640.569      1793.9654     -16174.193     -28.826509      708392.85    
     38900   356.56555     -23599.893      1849.9738     -16082.781     -9.6936691      709184.58    
     39000   363.75652     -23616.809      1839.2972     -15996.082     -36.904101      709640.43    
     39100   360.99968     -23498.062      1734.2168     -16026.232     -8.0946758      710050.28    
     39200   356.13032     -23502.774      1760.2871     -16082.266     -10.150763      710338.7     
     39300   352.49284     -23582.802      1806.2557     -16174.138     -16.690687      707774.29    
     39400   355.9687      -23799.136      1735.4109     -16406.072      4.1668766      702932.24    
     39500   358.61578     -23924.31       1817.39       -16407.195      60.805357      698626.65    
     39600   355.35837     -23811.804      1786.3022     -16377.55       88.443381      699530.42    
     39700   356.07602     -23775.559      1803.578      -16312.623     -24.716733      704958.67    
     39800   359.33956     -23641.853      1761.8154     -16168.81      -44.072911      709199.27    
     39900   356.27974     -23552.258      1802.6536     -16087.009     -77.720311      710908.26    
     40000   359.73351     -23558.08       1807.1753     -16033.416     -2.7455672      709135.37    
     40100   360.26086     -23548.832      1803.6933     -16019.269      30.04621       706834.46    
     40200   358.55692     -23666.826      1847.9733     -16120.064      46.424325      704840.23    
     40300   356.06028     -23707.171      1782.5603     -16265.503     -11.035991      705497.2     
     40400   354.85716     -23670.481      1782.2586     -16248.237     -43.865571      706011.71    
     40500   362.55748     -23720.541      1784.179      -16173.99      -0.37895222     705033.17    
     40600   357.73894     -23649.992      1812.4601     -16151.744      44.929628      704636.31    
     40700   356.13492     -23635.686      1844.3909     -16131.001      36.374355      705773.86    
     40800   357.56434     -23603.786      1807.9722     -16112.801     -11.530761      708126.07    
     40900   363.35987     -23541.703      1792.5435     -15974.034     -35.36707       710143.25    
     41000   362.49694     -23455.731      1802.6968     -15891.624      23.237083      710010.83    
     41100   355.85638     -23458.611      1843.8917     -15958.852     -7.8437013      709085.14    
     41200   362.14795     -23580.997      1792.7154     -16032.419     -27.895559      706593.7     
     41300   360.09842     -23714.124      1837.2508     -16153.584     -9.2335515      704018.64    
     41400   355.33977     -23750.091      1807.5373     -16294.897      43.376989      702862.53    
     41500   356.74239     -23771.457      1850.8355     -16250.673     -20.750113      703766.24    
     41600   356.94063     -23615.963      1810.52       -16132.343      31.412512      705868.36    
     41700   365.42661     -23661.682      1792.6578     -16061.051     -73.490894      708367.14    
     41800   367.65821     -23618.447      1805.0014     -15970.004     -56.965602      709031.53    
     41900   365.33391     -23527.824      1809.971      -15911.354      36.042111      707949.63    
     42000   369.26996     -23545.297      1756.1592     -15920.08       20.013369      707379.1     
     42100   358.73324     -23534.509      1795.8015     -16037.116      5.4760969      707518.7     
     42200   358.27496     -23669.546      1829.8323     -16145.406     -36.483028      706953.86    
     42300   354.73524     -23634.422      1873.4245     -16122.949      21.571086      705117.34    
     42400   366.83395     -23666.473      1871.5754     -15964.556      2.1651963      704690.85    
     42500   357.89012     -23500.094      1850.6504     -15961.253      18.295354      707479.16    
     42600   362.76955     -23420.481      1761.1244     -15893.614     -33.241871      710364.45    
     42700   361.67345     -23419.8        1876.8743     -15794.604     -17.275242      711234.08    
     42800   365.49003     -23390.546      1803.1718     -15778.393     -1.4720741      711630.74    
     42900   364.12259     -23374.897      1780.954      -15806.695     -4.9807272      712066.1     
     43000   363.74802     -23357.192      1806.6032     -15769.294     -22.333741      712578.59    
     43100   370.47068     -23299.037      1802.1822     -15608.713      52.761596      712108.51    
     43200   369.62049     -23301.366      1797.8053     -15628.931     -1.6521935      713086.13    
     43300   363.1778      -23329.812      1842.0324     -15715.548     -7.0636545      713897.9     
     43400   367.14095     -23377.393      1787.5142     -15754.659      7.5380793      713472.13    
     43500   361.0997      -23372.85       1852.3372     -15781.31       7.5090052      712497.22    
     43600   365.45369     -23364.413      1910.9552     -15645.055      35.885434      711306.96    
     43700   372.18417     -23405.412      1871.3774     -15618.659      65.115175      711138.85    
     43800   362.33439     -23368.28       1875.8263     -15733.627     -17.880419      714021.17    
     43900   361.95434     -23340.575      1792.9371     -15794.852     -46.351255      715702.37    
     44000   361.22194     -23291.634      1861.4998     -15688.988     -7.3579563      713924.71    
     44100   372.36501     -23390.608      1831.6434     -15640.715      23.221389      710993.75    
     44200   364.96812     -23359.579      1851.7743     -15707.118      32.279009      710743.02    
     44300   359.41635     -23281.032      1801.5635     -15767.02       9.6253726      711761.95    
     44400   368.05503     -23348.834      1770.0801     -15729.005      8.7379663      711896.19    
     44500   368.64043     -23303.718      1844.9323     -15599.733      29.175001      712268.14    
     44600   362.99515     -23301.273      1899.15       -15632.795      7.7796448      713757.75    
     44700   365.34472     -23346.901      1853.9914     -15686.238     -66.303111      715221.18    
     44800   362.98051     -23274.845      1836.2051     -15669.544     -10.420459      714727.44    
     44900   372.46616     -23342.883      1875.9053     -15547.12       35.974741      713060.3     
     45000   371.06439     -23326.124      1879.5188     -15549.027      29.378401      713870.61    
     45100   366.46603     -23367.343      1864.1742     -15678.676     -57.47168       716887.72    
     45200   362.94539     -23250.408      1772.475      -15709.396     -58.45204       719188.58    
     45300   369.99682     -23224.25       1791.4952     -15552.144     -25.352928      718015.91    
     45400   370.81823     -23266.98       1868.0561     -15505.258      17.494201      714967.09    
     45500   368.84229     -23248.733      1841.4293     -15545.043      77.096978      712610.12    
     45600   365.60516     -23382.196      1884.363      -15687.022     -12.763974      712882.78    
     45700   366.37332     -23399.956      1839.1825     -15737.753     -93.789834      713693.81    
     45800   363.3651      -23407.667      1925.5818     -15706.876     -1.9972582      711056.58    
     45900   372.80227     -23325.054      1851.0989     -15548.755      144.54901      709891.59    
     46000   368.16804     -23186.813      1780.3304     -15554.938      40.438233      715101.75    
     46100   364.59588     -23157.982      1816.723      -15546.489     -81.507973      720425.76    
     46200   369.04409     -23021.712      1815.2301     -15341.014     -40.442443      721218.64    
     46300   370.21627     -23065.531      1858.5201     -15322.913      22.693879      718989.31    
     46400   368.13291     -23072.181      1808.992      -15412.203      69.158305      716776.28    
     46500   362.86184     -23142.98       1839.131      -15536.639     -3.0012737      716616.4     
     46600   364.55765     -23159.541      1849.1071     -15516.271     -11.68242       716983.53    
     46700   371.29352     -23181.399      1877.1569     -15403.022     -8.1866265      716394.2     
     46800   368.52406     -23119.343      1875.6067     -15386.533      44.378165      715380.02    
     46900   366.7176      -23144.441      1902.8145     -15413.134     -0.51253612     716736.91    
     47000   372.01218     -23232.769      1854.9952     -15465.131     -47.45265       718322.8     
     47100   370.06447     -23133.729      1737.3259     -15514.717     -3.7416579      718433.99    
     47200   367.47962     -23136.365      1852.4631     -15443.298      28.838214      717144.54    
     47300   376.17255     -23154.907      1824.5232     -15351.618      21.818799      716548.59    
     47400   371.62915     -23157.686      1880.0586     -15371.073     -31.812518      716960.99    
     47500   367.56364     -23143.501      1847.9921     -15453.57      -12.823659      717238.53    
     47600   365.01498     -23203.379      1849.2637     -15552.684     -41.941342      716709.75    
     47700   369.74701     -23204.201      1820.5515     -15507.009      17.823128      715259.71    
     47800   373.34284     -23157.318      1858.6705     -15364.857      68.217929      714020.86    
     47900   371.85816     -23166.611      1858.9672     -15397.45       5.3860084      715133.61    
     48000   371.40602     -23228.868      1843.5663     -15482.294     -72.950534      716309.56    
     48100   366.29734     -23197.116      1859.3331     -15515.97      -15.273612      715537.07    
     48200   372.8648      -23269.458      1914.2259     -15429.038      14.491182      713944.25    
     48300   376.08331     -23211.97       1906.0488     -15328.574      103.63616      714321.56    
     48400   372.69004     -23152.73       1836.7303     -15392.584      8.2389853      718092.78    
     48500   369.21663     -23079.864      1804.9743     -15406.679     -70.013493      720958.44    
     48600   369.82805     -23070.963      1935.2828     -15257.752      34.630942      719772.82    
     48700   378.7866      -23025.817      1800.7459     -15204.759      38.163621      719254.81    
     48800   376.06041     -23139.17       1868.4119     -15293.774     -0.10114815     719709.45    
     48900   372.62367     -23199.952      1892.0707     -15385.52      -37.871138      720343.69    
     49000   377.63896     -23252.911      1818.3135     -15432.525     -75.898541      719788.17    
     49100   376.68832     -23209.748      1899.8073     -15322.977     -45.756043      717958.08    
     49200   378.32574     -23175.222      1909.4529     -15252.781      61.70738       716852.39    
     49300   371.42059     -23050.838      1831.5622     -15316.036     -14.864085      719211.96    
     49400   365.33601     -23073.537      1884.1434     -15382.861     -38.396762      721107       
     49500   375.69168     -23069.082      1838.5769     -15259.382     -41.31628       720813.03    
     49600   378.10114     -22995.746      1823.9931     -15162.335      53.588445      719263.94    
     49700   372.56105     -23034.029      1911.8456     -15200.818      48.857576      718295.11    
     49800   374.37331     -23179.925      1928.8641     -15300.892     -22.55598       719319.05    
     49900   370.70023     -23120.959      1877.6303     -15351.538     -13.554036      720379.28    
     50000   373.30384     -23042.425      1850.8469     -15258.406      28.130955      720523.64    
     50100   382.89972     -23105.034      1858.3601     -15160.989     -46.363615      720569.93    
     50200   371.80932     -22998.168      1874.555      -15214.195      16.09161       719348.52    
     50300   376.42998     -23109.915      1808.3575     -15318.701     -5.9675826      718331.86    
     50400   374.07645     -23252.545      1875.0343     -15432.06      -82.540653      716845.1     
     50500   373.44149     -23267.764      1840.9719     -15491.433      20.117465      715073.86    
     50600   375.11106     -23260.717      1882.1463     -15416.676     -1.7805347      715335.9     
     50700   378.28471     -23170.955      1861.2069     -15297.412     -34.441387      717113.41    
     50800   376.29611     -23089.495      1879.247      -15229.519     -40.748893      718970.97    
     50900   375.61296     -23019.998      1890.2223     -15159.904      0.82620919     720157.03    
     51000   376.70158     -22947.401      1848.9151     -15111.312      21.198228      720810.2     
     51100   378.05418     -22976.942      1874.0889     -15094.182     -0.86585077     722019.4     
     51200   380.09961     -22924.764      1778.5919     -15104.991     -54.870813      723592.28    
     51300   376.23133     -22915.555      1818.1051     -15117.75      -26.344657      722609.48    
     51400   381.53468     -22991.334      1835.0226     -15092.321      49.421842      719026.32    
     51500   382.47459     -23042.628      1851.3369     -15112.363      44.654478      717356.57    
     51600   370.17799     -22980.926      1857.7093     -15239.727      6.9635514      719021.96    
     51700   373.02401     -23037.329      1829.0448     -15279.561     -23.686418      720335.59    
     51800   376.33688     -22984.267      1860.1768     -15142.713      61.48052       719744.91    
     51900   375.80206     -22935.233      1871.8618     -15090.494      95.216086      719831.32    
     52000   376.67219     -22909.412      1849.827      -15072.878     -15.233052      722723.26    
     52100   379.8015      -22944.734      1911.2608     -14997.03      -60.416756      726010.96    
     52200   376.74857     -22788.858      1925.6704     -14875.267     -56.372124      728156.62    
     52300   378.79565     -22744.392      1854.0129     -14869.922     -27.966945      726362.66    
     52400   382.4252      -22879.58       1897.6083     -14903.828      46.485878      722255.43    
     52500   377.38341     -22929.345      1895.3963     -15035.938      41.727045      719912.27    
     52600   373.77486     -22991.762      1912.8698     -15138.234      30.006636      719383.87    
     52700   376.0814      -23025.668      1919.5568     -15128.794     -14.180085      721303.35    
     52800   376.46595     -22935.061      1873.226      -15078.406     -10.824888      723908.35    
     52900   374.33604     -22875.054      1888.8855     -15036.592     -17.879005      724915.01    
     53000   372.29833     -22770.516      1910.7752     -14942.551     -3.4871494      725355.88    
     53100   378.75589     -22745.231      1870.8234     -14854.583      27.168015      725386.82    
     53200   381.58317     -22806.43       1890.6194     -14851.051     -17.732618      725431.45    
     53300   374.19051     -22739.554      1885.5629     -14906.727      29.103458      724818.11    
     53400   377.64286     -22912.828      1846.8214     -15063.872     -13.53106       724023.72    
     53500   369.23919     -22944.887      1883.414      -15192.903      43.750423      721471.64    
     53600   380.30254     -22994.764      1817.77       -15132.587      61.402015      718827.58    
     53700   376.47771     -22975.729      1921.0597     -15071.054      48.213406      718784.55    
     53800   370.30434     -22767.118      1862.721      -15018.898      68.970601      722944.97    
     53900   382.35864     -22847.088      1823.9081     -14946.094     -115.4545       727975.97    
     54000   381.53027     -22743.671      1836.5732     -14843.178     -3.2906126      728057.72    
     54100   386.76363     -22815.005      1899.5448     -14768.363      22.052451      725672.3     
     54200   381.38561     -22754.138      1898.8153     -14793.703      34.130102      724150.83    
     54300   378.10954     -22808.964      1884.0748     -14915.337     -8.1539169      725806.32    
     54400   373.29256     -22832.296      1885.0648     -15014.239     -59.532717      727232.76    
     54500   379.79352     -22750.364      1878.5868     -14835.46      -1.4803945      725714.43    
     54600   386.79952     -22821.914      1889.6125     -14784.634      39.22758       723204.4     
     54700   380.07861     -22847.371      1901.5695     -14904.954      16.570934      722625.09    
     54800   383.52884     -22924.8        1828.1395     -15000.976      3.470371       723801.22    
     54900   374.10871     -22763.84       1870.3986     -14947.477      10.98117       726366.27    
     55000   380.48341     -22647.074      1814.5363     -14785.256      30.595666      727751.12    
     55100   381.78896     -22689.689      1893.0758     -14728.582     -12.423197      728286.31    
     55200   380.45357     -22709.682      1995.1804     -14667.695     -14.005973      727141.83    
     55300   385.21045     -22708.414      1928.0673     -14657.935      2.3710505      725201.03    
     55400   375.64226     -22634.9        1895.3471     -14769.215      71.064981      724022.82    
     55500   376.39779     -22748.442      1851.2039     -14914.893     -9.5452671      724813.74    
     55600   377.76608     -22809.685      1895.5139     -14910.078     -40.011147      724498.89    
     55700   385.93972     -22810.098      1920.3235     -14755.773      38.964472      723531.3     
     55800   383.08515     -22750.091      1912.1725     -14749.286      9.0817095      725929.94    
     55900   380.20911     -22655.323      1855.7205     -14756.681     -34.60325       729692.38    
     56000   381.03095     -22588.823      1879.678      -14653.161     -78.731169      731012.56    
     56100   380.32171     -22580.803      1970.6108     -14565.481     -11.253251      729023.33    
     56200   387.90452     -22669.684      1945.7115     -14558.742      19.479062      725562.11    
     56300   387.23048     -22735.785      1905.2119     -14676.056      29.596977      723832.92    
     56400   382.95505     -22790.191      1926.4693     -14777.157     -0.54074198     723885.83    
     56500   375.37714     -22706.266      1962.2885     -14777.854      57.744742      724866.22    
     56600   380.81147     -22722.439      1933.0489     -14736.894      8.3544464      725747.23    
     56700   388.74739     -22713.709      1880.7842     -14654.299     -11.269399      727266.42    
     56800   385.61801     -22596.848      1917.7361     -14550.223      6.8567213      730403.54    
     56900   382.97899     -22556.873      1936.5152     -14533.412     -36.650539      734235.04    
     57000   385.83492     -22509.17       1873.2291     -14503.605     -77.258778      734925.54    
     57100   390.05776     -22576.584      1945.9533     -14431.177      27.397372      731756.44    
     57200   389.04679     -22500.826      1918.8859     -14398.555      38.858398      730571.99    
     57300   392.05011     -22580.069      1891.3828     -14457.568      3.7769504      731874.58    
     57400   379.92086     -22575.583      1866.392      -14670.851     -59.547038      733929.1     
     57500   377.58683     -22593.611      1899.268      -14693.099     -22.109529      732201.2     
     57600   388.28079     -22636.928      1894.8792     -14570.838      13.809385      729232.17    
     57700   387.99344     -22595.98       1881.5155     -14547.821      44.44515       727898.33    
     57800   381.73695     -22562.645      1893.4437     -14601.996      2.1720246      728760.5     
     57900   383.94303     -22650.345      1892.2668     -14655.811     -32.255676      729494.67    
     58000   387.1944      -22670.388      1925.7121     -14590.733     -28.941082      729509.42    
     58100   395.54713     -22646.753      1883.9879     -14476.066     -9.562479       729467.97    
     58200   385.3399      -22577.727      2006.7908     -14446.467      20.579551      730305.18    
     58300   386.75747     -22569.321      1968.9794     -14453.343     -13.069374      732119.52    
     58400   391.81188     -22592.446      1910.9285     -14454.185     -71.337931      732804.32    
     58500   388.79552     -22534.702      1914.3062     -14441.005     -25.140037      730958.67    
     58600   388.40338     -22549.935      1916.2246     -14460.551      109.29509      727363       
     58700   391.71258     -22726.118      1931.8143     -14568.55       14.488782      726296.5     
     58800   382.9064      -22728.851      1932.6853     -14710.374     -24.944456      727142.45    
     58900   388.62172     -22725.293      1843.2189     -14705.445     -24.317044      728312.29    
     59000   381.31033     -22599.007      1965.0013     -14573.581     -5.1182508      729678.89    
     59100   390.10241     -22596.044      1866.0451     -14529.836      22.742365      729554.9     
     59200   392.33501     -22668.89       1913.0343     -14520.209     -9.7485367      728734.34    
     59300   393.08381     -22661.591      1918.3031     -14495.74       15.856529      728453.83    
     59400   387.68204     -22546.101      1954.5434     -14429.864      71.271462      729919.03    
     59500   388.3619      -22459.94       1980.6187     -14306.822     -23.733683      734434.42    
     59600   386.63988     -22361.1        1991.7264     -14224.243     -87.780729      737958.84    
     59700   395.7184      -22417.403      1920.3298     -14207.652     -62.012448      737251.53    
     59800   387.40799     -22311.239      1922.1566     -14231.744      18.371154      734279.18    
     59900   385.96029     -22372.316      1977.9358     -14260.051      21.16769       731987.05    
     60000   392.52048     -22588.836      1978.469      -14371.773     -14.37057       730684.45    
     60100   388.80512     -22551.794      1895.8646     -14476.386      31.45335       730709.91    
     60200   384.4577      -22533.048      1950.6057     -14471.995     -1.9209527      731836.69    
     60300   385.99617     -22427.125      1925.5541     -14366.672      43.392264      732464.6     
     60400   387.55457     -22388.812      1959.8632     -14269.281      7.2736407      733895.7     
     60500   388.88344     -22353.449      1952.8126     -14219.848      30.369497      735831.51    
     60600   385.91704     -22237.863      1938.9124     -14165.308     -8.4411579      738926.37    
     60700   393.55509     -22242.666      1913.7368     -14073.891     -44.736988      740345.14    
     60800   397.36222     -22362.634      2058.8315     -13988.255     -44.715041      738473.99    
     60900   398.16918     -22408.263      1968.0513     -14111.838     -16.97929       735384.49    
     61000   391.10988     -22456.125      1928.4051     -14311.545     -2.4969678      733157.24    
     61100   388.29358     -22465.674      1938.0163     -14356.244     -5.8325772      732346.45    
     61200   392.04011     -22458.053      1918.6407     -14308.453      85.398633      731673.32    
     61300   389.73396     -22399.006      1955.8754     -14248.824      48.388799      732528.1     
     61400   393.8544      -22429.37       1993.2669     -14176.307     -40.001651      735369.32    
     61500   396.30291     -22390.209      1979.9113     -14111.586     -53.723047      737186.32    
     61600   397.76853     -22294.384      1998.1371     -13974.241     -34.212834      738150.85    
     61700   393.97494     -22231.396      1984.9441     -13984.741      31.083492      738851.06    
     61800   387.39549     -22261.143      1952.6684     -14151.335     -55.047435      739827.55    
     61900   390.58338     -22320.943      1880.2515     -14232.884     -8.4299776      738304.63    
     62000   395.78947     -22403.017      1892.4628     -14220.004      33.930354      735111.78    
     62100   388.74926     -22382.963      1967.7188     -14236.588      29.093704      733501.21    
     62200   394.36611     -22443.566      1911.8881     -14263.749      9.3966657      733570.57    
     62300   391.76028     -22470.909      1983.7715     -14260.625     -37.467408      734549.82    
     62400   396.14327     -22384.756      1941.9547     -14146.627      25.269622      735802.46    
     62500   392.92257     -22273.914      1948.1227     -14080.806      23.825426      737884.11    
     62600   390.24932     -22276.58       1968.5898     -14105.493     -18.278795      739656.23    
     62700   389.9657      -22313.731      2047.8748     -14067.866     -42.219083      739584.37    
     62800   399.90959     -22263.068      1975.324      -13931.71       25.799945      738627.77    
     62900   398.20572     -22214.367      1958.7006     -13926.712      41.768135      738743.41    
     63000   393.10812     -22287.967      1982.5065     -14057.526     -43.572086      740448.98    
     63100   389.27464     -22275.905      1907.8752     -14181.024     -13.521128      740172.69    
     63200   394.35911     -22355.843      1921.6284     -14166.397      19.061776      736973.36    
     63300   397.40794     -22460.418      1981.9644     -14162.18       20.262482      734657.63    
     63400   393.36407     -22398.861      1941.495      -14205.364      67.719086      735698.21    
     63500   386.78594     -22246.27       1954.3458     -14144.473     -17.376733      739491.37    
     63600   394.52999     -22208.281      1972.6668     -13965.081     -11.759363      741799.44    
     63700   398.70467     -22189.138      1958.2874     -13893.967     -82.699238      742537.24    
     63800   398.74696     -22139.643      1960.524      -13841.562      26.05787       741804.03    
     63900   395.91386     -22115.741      1986.7269     -13836.487     -9.8563615      741518.62    
     64000   391.59754     -22150.061      1972.5079     -13953.627      35.577658      741383.65    
     64100   393.08466     -22196.622      1849.3857     -14099.674     -21.11711       741573.51    
     64200   389.95334     -22246.547      1992.4844     -14056.27      -8.0716729      739350.23    
     64300   400.59237     -22302.832      1986.5619     -13949.383      79.326992      735621.69    
     64400   403.28462     -22406.711      2022.3094     -13974.726     -17.663793      735095.72    
     64500   400.66463     -22353.869      1925.6431     -14060.191      4.9429204      736489.01    
     64600   389.69729     -22372.853      2047.8454     -14131.284     -40.225139      738039.23    
     64700   393.45734     -22190.147      1901.9523     -14034.71       33.918471      738922.92    
     64800   391.928       -22122.517      1999.413      -13893.926      26.608394      739709.3     
     64900   396.9914      -22140.929      1922.1426     -13909.133      16.247795      740737.82    
     65000   398.64235     -22210.876      1961.9016     -13913.081     -16.278573      740882.6     
     65100   394.19931     -22084.414      1950.4052     -13868.731      42.198713      741058.97    
     65200   401.61546     -22160.089      2034.1907     -13742.751     -14.548752      742239.8     
     65300   404.72849     -22036.132      1906.4483     -13697.059      1.1984797      743468.46    
     65400   397.79039     -22021.126      1910.5237     -13788.25      -29.969009      744253.79    
     65500   393.33134     -22157.687      1923.188      -13983.017     -71.570835      742905.08    
     65600   393.41828     -22306.074      2010.2446     -14042.965      27.452768      738363.28    
     65700   410.35076     -22334.58       1979.2918     -13833.305      81.952412      735320.56    
     65800   399.2392      -22199.406      1991.8075     -13862.219      46.225891      737643.41    
     65900   390.45303     -22141.623      1997.2621     -13938.626     -63.996059      742468.76    
     66000   398.62518     -22139.401      1964.7743     -13839.006     -24.639224      744065.6     
     66100   401.01819     -22074.48       1983.6731     -13717.153     -26.574848      743541.93    
     66200   402.78494     -22084.597      1961.5352     -13721.327      5.7096013      742062.84    
     66300   404.0822      -22195.368      2001.8601     -13771.155     -48.787513      740949.47    
     66400   398.64865     -22202.859      1985.8852     -13880.98       14.686227      740670.99    
     66500   395.7444      -22279.003      1979.4303     -14009.738     -62.336706      741803.25    
     66600   397.73573     -22224.636      1935.8189     -13967.333      5.7488051      741204.29    
     66700   404.0596      -22205.83       1974.3836     -13809.453      76.532216      739798.17    
     66800   397.89705     -22070.198      1942.4053     -13803.744      44.226935      741598.31    
     66900   400.19981     -22105.882      1960.7292     -13784.505     -25.106005      744927.63    
     67000   398.19428     -21968.644      1991.1187     -13648.753      4.4000278      747691.66    
     67100   403.2722      -21926.671      1939.1449     -13578.047     -28.20732       749223.91    
     67200   395.43443     -21878.16       2007.0963     -13586.155     -35.349234      749448.77    
     67300   402.83696     -21907.867      1942.1938     -13563.111      30.5957        746450.31    
     67400   402.87378     -21955.834      2000.7755     -13551.912      95.550267      742374.56    
     67500   403.0272      -22108.216      1998.9355     -13703.695      47.551262      740940.85    
     67600   396.36995     -22090.591      1932.2767     -13858.537      11.008395      740797.94    
     67700   399.11475     -22132.576      1958.692      -13830.483      15.216506      740375.62    
     67800   399.28573     -22025.848      1976.9325     -13702.797      30.965168      741012.81    
     67900   400.57689     -21988.275      1969.1047     -13652.53      -2.2789388      743740.98    
     68000   406.53779     -22025.128      1939.4462     -13624.301     -77.427182      746747.75    
     68100   402.16762     -21928.12       1967.481      -13568.716      10.272527      746417.83    
     68200   409.5304      -21985.114      1999.4793     -13476.69      -42.129912      744774.62    
     68300   411.40193     -21902.664      2060.4807     -13303.493      55.477939      743610.28    
     68400   408.6832      -21849.335      1945.0574     -13408.797      31.955764      745563.03    
     68500   403.81581     -21910.866      1953.8346     -13538.913     -24.490716      747949.64    
     68600   401.5145      -21867.005      1926.2167     -13559.245      23.53486       748487.27    
     68700   406.69747     -21928.519      1946.2202     -13518.38      -17.101599      747839.67    
     68800   412.34255     -21989.328      1992.7482     -13442.94      -32.581802      746661.63    
     68900   408.2887      -21843.729      1979.8462     -13374.674      21.476315      747295.96    
     69000   414.07314     -21845.276      1974.6706     -13289.459      3.5095108      750045.21    
     69100   403.4549      -21685.723      1982.6918     -13290.649     -46.396504      753773.22    
     69200   401.09331     -21732.997      1999.6493     -13358.499     -26.725247      755092.99    
     69300   403.90375     -21810.548      2004.051      -13386.981     -35.441659      753321.83    
     69400   404.5144      -21794.208      2027.556      -13337.43       24.716325      750483.19    
     69500   406.63891     -21787.464      2013.8156     -13310.66       44.000961      748850.82    
     69600   404.87894     -21836.486      1983.8104     -13417.66       57.517404      748740.99    
     69700   398.83801     -21902.375      2003.3065     -13560.065     -34.496969      749820.76    
     69800   397.23006     -21837.719      2040.3273     -13483.944      1.641856       749530.43    
     69900   407.31894     -21871.675      1990.2117     -13407.667      18.100665      749179.84    
     70000   407.34865     -21892.05       1987.7393     -13430.042     -47.641176      750743.46    
     70100   397.64696     -21743.964      1985.3063     -13438.584     -32.970512      751700.38    
     70200   407.58537     -21783.487      2012.2863     -13293.17       20.394173      750604.75    
     70300   414.8839      -21872.182      2026.6662     -13251.484     -41.533366      749927.06    
     70400   406.54899     -21838.197      2043.3054     -13333.333      24.57814       749652.67    
     70500   408.43193     -21879.6        1979.1615     -13408.952     -47.968952      750021.29    
     70600   403.82435     -21833.291      1971.012      -13444.024      44.016916      748200.3     
     70700   410.55847     -21867.763      1990.203      -13352.275      26.957888      746569.16    
     70800   412.34933     -21800.863      2019.2831     -13227.832      35.729162      748356.18    
     70900   407.61832     -21763.921      2001.4706     -13283.896     -49.335397      752546.81    
     71000   401.12379     -21723.097      1985.522      -13362.242     -56.425821      754556.63    
     71100   410.39771     -21776.845      1988.4546     -13265.661     -51.988011      753004.12    
     71200   407.92624     -21672.281      2022.1274     -13166.705      45.099838      750033.53    
     71300   407.29017     -21780.798      2041.7475     -13265.711     -17.431074      748807.6     
     71400   412.26022     -21885.742      1931.0179     -13402.393     -25.84397       747706.42    
     71500   406.30574     -21851.045      1918.7055     -13474.646      64.445232      746514.32    
     71600   408.12536     -21875.453      1919.6159     -13469.224     -2.032072       748175.96    
     71700   406.34006     -21826.898      1959.8633     -13408.797     -41.425071      751214.87    
     71800   404.02138     -21746.161      1974.9183     -13349.857     -26.833142      752868.44    
     71900   405.61472     -21753.59       2026.4464     -13280.433     -17.483372      752247.78    
     72000   405.73899     -21697.917      2025.9083     -13223.323      35.439098      750128.55    
     72100   411.59656     -21831.06       2043.7317     -13245.545      31.439222      749345.13    
     72200   402.58073     -21787.201      1971.5616     -13417.151      14.917747      751833.44    
     72300   392.18279     -21769.188      2008.1955     -13527.765     -6.9071146      754349.31    
     72400   404.6514      -21737.594      1948.5673     -13357.628      32.277832      753238.6     
     72500   410.83376     -21827.636      1983.2402     -13314.736     -31.088886      751342.52    
     72600   402.08627     -21690.671      2034.6414     -13265.4        94.377893      751134.64    
     72700   409.76947     -21715.719      2020.9101     -13182.065     -36.511875      754226       
     72800   408.76555     -21634.335      2046.7569     -13090.789     -77.715231      756723.26    
     72900   407.78037     -21580.837      2094.2133     -13005.494      1.5267727      756898.97    
     73000   410.06247     -21548.035      2028.72       -13001.913     -2.4708268      757514.29    
     73100   411.88735     -21553.476      1999.6157     -13007.455      15.336032      758036.57    
     73200   414.93092     -21613.406      1961.6242     -13057.003     -5.0439363      757847.53    
     73300   405.63316     -21593.806      2041.8631     -13104.94      -16.436514      755526.2     
     73400   410.7668      -21679.68       2071.4244     -13079.66       73.029113      750834.12    
     73500   416.27708     -21735.904      2012.5908     -13107.139      60.813239      750127.86    
     73600   406.10967     -21704.675      2027.684      -13222.414     -42.540078      753160.56    
     73700   397.34668     -21638.297      2080.7625     -13242.234     -27.210049      754646.3     
     73800   409.64068     -21620.958      2052.3155     -13057.945      26.998446      754398.43    
     73900   415.25963     -21673.883      2045.8501     -13028.03      -39.35008       754058.24    
     74000   413.6744      -21682.71       2041.364      -13066.538     -40.867159      753285.16    
     74100   404.43961     -21619.128      2015.1989     -13175.895      53.822328      752190.92    
     74200   408.3799      -21794.373      1995.8266     -13307.888      42.943739      750995.82    
     74300   407.07901     -21840.034      1983.7497     -13386.301     -12.980449      749571.1     
     74400   409.72994     -21824.173      2053.1219     -13258.935      60.456666      746748.57    
     74500   422.38292     -21916.192      2028.4882     -13174.485      15.712647      746990.13    
     74600   409.77453     -21726.83       1993.554      -13220.451      15.758035      751528.37    
     74700   413.17669     -21689.178      2009.5435     -13112.736     -52.921552      755790.24    
     74800   410.66698     -21591.833      2080.7678     -12984.056     -12.052566      758354.16    
     74900   408.33765     -21467.722      2054.6876     -12923.047     -52.706517      759843.58    
[...]
   2082500   448.63974     -19892.942      2197.3412     -10565.065      56.691521      801269.22    
   2082600   452.38678     -19984.813      2177.9629     -10616.76       36.635457      802831.26    
   2082700   442.22839     -19941.895      2215.4249     -10697.834     -16.626093      805465.57    
   2082800   441.88702     -19867.512      2204.0318     -10640.27       6.6417749      806895.43    
   2082900   450.72445     -19927.538      2284.0894     -10479.779     -25.475744      807636.53    
   2083000   451.21204     -19841.9        2223.6005     -10446.88       23.977379      807969.05    
   2083100   447.13821     -19775.323      2202.4474     -10466.205     -0.032693877    808449.25    
   2083200   453.92478     -19846.181      2197.5399     -10434.107      33.705627      808266.62    
   2083300   456.65501     -19798.108      2201.425      -10338.755     -1.7273615      808842.48    
   2083400   449.35832     -19717.395      2235.5223     -10339.916      46.48429       809799.26    
   2083500   449.47813     -19760.869      2164.7906     -10452.217     -62.577674      811447.42    
   2083600   440.25947     -19711.011      2175.8134     -10537.855     -14.385632      811991.01    
   2083700   449.90717     -19726.39       2182.4955     -10393.214     -4.3879676      810848.88    
   2083800   457.71881     -19788.545      2203.56       -10310.149      11.602648      809768.02    
   2083900   449.57084     -19668.638      2152.3854     -10370.918      90.409679      810250.58    
   2084000   448.25421     -19797.509      2181.1903     -10491.91      -68.771149      812554.4     
   2084100   445.84858     -19727.595      2131.6343     -10509.786     -31.741914      812512.97    
   2084200   454.72405     -19711.652      2175.3936     -10309.02       5.6352786      810426.22    
   2084300   454.86262     -19742.837      2223.1446     -10290.252      13.02599       809523.03    
   2084400   448.20925     -19831.163      2273.3253     -10434.144     -8.3160876      809554.65    
   2084500   444.42563     -19760.103      2134.8559     -10561.688      6.2271808      809751.61    
   2084600   442.99655     -19831.787      2236.1751     -10554.767     -47.377323      809044.31    
   2084700   457.57564     -19777.886      2166.2248     -10339.101      23.343644      807456.35    
   2084800   451.11939     -19797.444      2250.9233     -10376.574      34.289802      806280.84    
   2084900   454.07636     -19918.207      2245.9612     -10455.302     -38.168524      806329.54    
   2085000   448.7581      -19953.77       2230.6592     -10590.693     -17.916485      805666.55    
   2085100   448.64347     -19948.464      2097.2809     -10720.588     -15.238871      804304.79    
   2085200   451.04892     -20078.564      2162.2534     -10747.484     -18.917297      802192.69    
   2085300   457.3346      -20009.419      2169.4689     -10571.221      14.867203      799591.63    
   2085400   450.38272     -20003.018      2287.0069     -10557.773      73.948813      798328.8     
   2085500   443.10643     -19897.047      2173.4113     -10681.044      47.05714       800511.52    
   2085600   438.82614     -19963.463      2232.3093     -10756.591     -50.749818      804737.31    
   2085700   452.68639     -19883.061      2156.5168     -10531.692     -38.191309      807705.82    
   2085800   440.64679     -19697.218      2241.1706     -10452.549      25.558119      809564.16    
   2085900   449.0784      -19718.395      2218.4795     -10362.407     -16.175492      810877.88    
   2086000   456.88725     -19736.433      2177.9141     -10296.899     -51.65365       811511.52    
   2086100   450.98459     -19673.379      2234.3868     -10271.188     -20.320655      811615.98    
   2086200   449.82397     -19717.015      2250.8604     -10316.797     -8.7724143      810709.09    
   2086300   443.58343     -19753.008      2175.5636     -10527.272      2.5167262      809248.85    
   2086400   444.00247     -19874.87       2200.3679     -10617.669      24.476853      806447.47    
   2086500   452.7114      -19986.512      2259.8379     -10531.424     -13.981743      803960.73    
   2086600   448.64742     -19934.497      2347.4987     -10456.34       16.70575       803015.52    
   2086700   452.68736     -19913.262      2178.9357     -10539.459      38.186369      803656.21    
   2086800   446.45273     -19813.714      2112.8264     -10605.111      39.812976      805971.03    
   2086900   449.98917     -19908.92       2179.8529     -10577.083     -58.848258      807789.48    
   2087000   448.59681     -19848.365      2222.3665     -10496.145     -15.050797      807147.92    
   2087100   447.26011     -19806.753      2225.8981     -10472.246     -12.29832       806006.45    
   2087200   460.93252     -19868.157      2190.9044     -10351.339      49.560615      804900.56    
   2087300   454.41561     -19785.85       2235.5901     -10327.924      15.414819      805640.01    
   2087400   450.36095     -19859.932      2166.3921     -10535.647     -18.799666      807059.9     
   2087500   442.65107     -19854.117      2194.3822     -10624.38      -24.692113      807938.42    
   2087600   440.85499     -19785.161      2213.2554     -10565.098      12.051269      807561.37    
   2087700   449.32299     -19835.498      2197.5957     -10496.507      21.452265      806932.9     
   2087800   448.41562     -19822.584      2203.2666     -10492.343      26.414233      807032.09    
   2087900   452.14823     -19892.664      2207.1965     -10499.169     -13.29824       807656.06    
   2088000   454.70682     -19841.396      2122.7674     -10491.664     -22.109281      808308.29    
   2088100   449.09575     -19812.309      2325.1871     -10349.338     -31.585013      807930.74    
   2088200   456.54784     -19778.405      2230.7433     -10291.437      27.834023      807637.62    
   2088300   443.08321     -19718.732      2221.3776     -10455.132      56.971765      808828.16    
   2088400   447.23031     -19778.295      2102.2146     -10567.946     -31.419688      810698.39    
   2088500   442.71745     -19802.947      2238.079      -10528.459      7.8512036      810494.75    
   2088600   450.47977     -19814.481      2217.2619     -10437.438     -14.260586      810164.59    
   2088700   445.13448     -19756.293      2250.8321     -10430.636     -0.89972384     810793.45    
   2088800   451.48493     -19798.774      2229.6774     -10393.34      -16.378422      810873.75    
   2088900   452.35694     -19712.172      2215.0724     -10307.484      61.826975      810715.68    
   2089000   453.42839     -19606.385      2253.3904     -10146.349      43.735339      813160.63    
   2089100   454.95247     -19551.445      2177.6535     -10142.923     -27.868252      818200.95    
   2089200   443.439       -19590.148      2156.4174     -10385.853     -41.530582      821823.45    
   2089300   437.89188     -19578.301      2167.3386     -10451.25      -62.937287      821856.22    
   2089400   454.48064     -19688.523      2126.4579     -10338.696     -4.4213154      817693.4     
   2089500   453.48617     -19671.705      2166.8517     -10297.29       0.23524424     812141.73    
   2089600   450.37558     -19745.461      2236.4422     -10350.894      41.221312      807193.68    
   2089700   453.8427      -19951.187      2208.8449     -10529.112      6.7611166      804586.23    
   2089800   441.32078     -19937.142      2221.572      -10701.359      33.366601      804315.26    
   2089900   448.37446     -19994.669      2188.2491     -10680.1       -32.772748      804575.18    
   2090000   453.42397     -19971.662      2192.4247     -10572.663     -22.332914      804672.41    
   2090100   449.05171     -19879.368      2228.6418     -10513.643      8.3421841      805598.72    
   2090200   451.09931     -19822.005      2163.3251     -10489.052      7.2522969      807367.43    
   2090300   448.02853     -19834.577      2237.6394     -10476.116     -9.35048        809567.86    
   2090400   448.37726     -19765.695      2191.7105     -10447.621     -10.245175      812080.82    
   2090500   456.43017     -19677.539      2198.7814     -10224.403     -18.743692      814003.08    
   2090600   455.18832     -19664.546      2195.6147     -10234.315      6.8934992      815620.98    
   2090700   450.19517     -19633.563      2143.5338     -10334.771      19.755022      816867.4     
   2090800   438.9816      -19559.978      2218.0157     -10364.93      -17.075806      816897.47    
   2090900   452.5631      -19554.772      2143.7956     -10218.084      16.64581       815689.97    
   2091000   452.23499     -19617.194      2281.8772     -10147.639     -10.713755      814497.8     
   2091100   456.60369     -19673.359      2179.1118     -10237.135     -2.2209204      812905.12    
   2091200   450.78943     -19745.667      2201.4627     -10379.502      6.9577611      811224.39    
   2091300   453.95382     -19889.587      2199.2233     -10475.368     -45.142502      809515.87    
   2091400   446.97301     -19820.864      2207.3714     -10509.447      52.021406      807346.51    
   2091500   449.10522     -19819.19       2182.2475     -10499.008      35.403911      807293.56    
   2091600   448.94048     -19828.591      2229.2965     -10463.978     -32.486326      809286.76    
   2091700   458.88001     -19800.488      2236.3332     -10270.863     -36.747415      811034.58    
   2091800   452.96183     -19631.36       2189.8224     -10242.308     -6.7706475      812867.83    
   2091900   448.57559     -19590.14       2146.2829     -10314.341      18.045674      814287.4     
   2092000   439.71501     -19587.87       2231.2841     -10367.897     -3.4475835      815052.92    
   2092100   448.7776      -19662.974      2233.6562     -10296.59      -20.486973      814530.23    
   2092200   452.51962     -19617.444      2226.9318     -10198.31       55.057082      813025.32    
   2092300   452.06198     -19679.469      2213.9211     -10280.62       0.7183524      812611.15    
   2092400   444.12659     -19671.755      2139.8352     -10473.114      5.7289456      812015.39    
   2092500   441.56107     -19694.65       2221.3839     -10455.236      24.214487      811674.47    
   2092600   450.41377     -19719.066      2159.5299     -10400.804      26.097052      811954.39    
   2092700   453.05622     -19764.678      2181.5757     -10382.372     -42.166567      812016.23    
   2092800   446.42598     -19676.483      2205.2346     -10375.897     -22.046683      811504.45    
   2092900   459.10477     -19801.537      2182.434      -10322.239     -20.649013      810552.61    
   2093000   456.12339     -19741.563      2317.0447     -10175.039      9.6086251      809584.77    
   2093100   458.54133     -19638.844      2282.6326     -10068.303      16.462566      810284.57    
   2093200   455.95969     -19730.141      2239.7723     -10243.491      29.034716      812483.45    
   2093300   449.01564     -19656.762      2172.1345     -10348.117     -17.449565      815642.92    
   2093400   447.1328      -19590.923      2194.05       -10290.288     -35.883835      818548.39    
   2093500   448.23678     -19505.02       2236.2071     -10144.681      24.874703      819931.01    
   2093600   456.75468     -19581.936      2188.272      -10134.151     -30.35969       820907.03    
   2093700   446.91527     -19485.802      2198.1091     -10184.565     -57.392541      821576.5     
   2093800   449.37915     -19491.902      2176.9126     -10172.702     -27.525119      820273.55    
   2093900   456.13115     -19553.6        2254.3285     -10049.669      38.794366      817588.19    
   2094000   461.02324     -19523.398      2175.0519     -10020.991      17.19608       816165.75    
   2094100   444.28317     -19500.449      2200.8116     -10238.344      5.7526166      815806.67    
   2094200   450.21823     -19606.444      2144.769      -10306.051      5.1651379      815675.22    
   2094300   455.05801     -19678.47       2154.481      -10291.443     -8.5458131      815085.88    
   2094400   453.44696     -19666.991      2222.0856     -10237.965     -14.925325      814361.06    
   2094500   455.03051     -19572.225      2226.4916     -10113.625      10.803153      814375.44    
   2094600   458.36878     -19563.262      2221.0028     -10057.093      55.127814      815660       
   2094700   446.80739     -19575.826      2216.4768     -10257.936     -41.58668       818219.61    
   2094800   445.5967      -19606.565      2177.2129     -10347.182     -15.978415      818403.36    
   2094900   449.42543     -19568.729      2099.7935     -10325.912      45.351901      816114.38    
   2095000   452.03389     -19619.073      2177.7798     -10256.811     -17.431491      812869.82    
   2095100   453.56053     -19666.356      2210.5468     -10247.063      49.551078      808774.08    
   2095200   447.0865      -19809.175      2286.9625     -10416.363      57.517247      805887.39    
   2095300   451.86569     -19933.625      2127.4096     -10624.407      24.95699       804461.66    
   2095400   444.46496     -19921.459      2197.5929     -10659.683      1.0633864      803572.88    
   2095500   448.55192     -19922.744      2169.6159     -10623.988      37.209779      802824.51    
   2095600   450.92692     -19851.286      2200.3471     -10484.051      49.4545        803271.65    
   2095700   450.35536     -19842.835      2242.6934     -10442.338      41.385519      805829.45    
   2095800   443.31505     -19731.063      2216.2025     -10468.954      21.055202      810443.54    
   2095900   450.13028     -19664.149      2101.844      -10408.078      20.627564      815401.63    
   2096000   447.53584     -19589.407      2159.7857     -10316.63      -52.348335      819212.45    
   2096100   448.30868     -19542.803      2154.3992     -10263.13      -70.042317      819835.34    
   2096200   449.19674     -19548.724      2235.756      -10173.579      29.684441      817163.28    
   2096300   454.39856     -19623.178      2253.943      -10147.17      -4.3159615      815823.81    
   2096400   447.98975     -19567.734      2203.6818     -10243.847      62.874846      815187.47    
   2096500   439.13917     -19706.122      2236.2569     -10490.328     -17.252405      815355.82    
   2096600   442.47418     -19723.352      2184.9699     -10505.839     -6.7106434      815183.84    
   2096700   448.02128     -19693.95       2167.0324     -10406.212     -10.392499      813914.77    
   2096800   452.5076      -19725.694      2187.1397     -10346.543      6.2353312      811504.22    
   2096900   451.38441     -19733.764      2221.0124     -10338.592      48.622363      809573.33    
   2097000   446.80847     -19762.121      2267.5346     -10393.156     -9.5074279      808581.42    
   2097100   447.21918     -19807.371      2146.1263     -10553.286     -14.026875      808465.8     
   2097200   437.93175     -19746.918      2176.1121     -10610.459     -19.524283      808159.06    
   2097300   454.69427     -19797.835      2117.9401     -10453.13       34.693604      806757.04    
   2097400   451.38902     -19817.685      2226.9012     -10416.552      47.155146      806031.56    
   2097500   448.9377      -19779.709      2140.9783     -10503.459     -2.3822054      806342.25    
   2097600   448.39437     -19867.097      2192.9603     -10547.501      6.599287       806262.89    
   2097700   451.80892     -19806.238      2240.9449     -10384.387      21.260088      806507.75    
   2097800   455.87232     -19746.366      2211.9655     -10288.912      41.697369      808623.58    
   2097900   446.18327     -19661.193      2209.5443     -10360.155      12.537683      812168.83    
   2098000   439.84009     -19642.125      2242.151      -10409.297     -7.3803244      814847.79    
   2098100   450.24194     -19618.172      2206.7648     -10255.406     -36.408658      815639.56    
   2098200   450.80315     -19478.185      2161.413      -10151.851      11.882204      815357.81    
   2098300   455.17416     -19604.323      2146.6651     -10223.266      14.426375      814610.1     
   2098400   446.35357     -19570.777      2150.6437     -10325.933     -3.1087773      814372.17    
   2098500   445.60188     -19658.104      2146.8301     -10429.021     -44.614169      813713.06    
   2098600   444.89307     -19727.959      2212.5346     -10444.437     -5.0323693      811801.9     
   2098700   452.46708     -19713.093      2181.5074     -10340.219      26.551691      809575.19    
   2098800   452.45131     -19766.804      2304.0827     -10271.605      43.731539      807695.17    
   2098900   450.15957     -19752.088      2185.2724     -10412.124      53.137566      807574.16    
   2099000   445.91081     -19743.147      2077.3772     -10578.606     -14.381781      809955.94    
   2099100   440.96926     -19672.266      2139.8369     -10523.805      7.3681226      812103.39    
   2099200   447.07769     -19707.996      2182.5162     -10419.77      -49.557873      812411.55    
   2099300   455.1177      -19741.206      2164.2711     -10343.441     -22.103867      811243.56    
   2099400   450.07138     -19751.675      2214.1779     -10384.207      6.6316123      810762.94    
   2099500   448.04902     -19761.35       2164.6955     -10475.507     -44.032562      811649.05    
   2099600   444.86085     -19806.862      2111.849      -10624.538     -70.064683      811837.14    
   2099700   452.74987     -19911.411      2154.0091     -10561.54      -27.853543      809495.18    
   2099800   452.79722     -19813.499      2187.1871     -10429.698      58.344951      805970.73    
   2099900   455.6329      -19878.667      2174.8986     -10462.085      28.08576       804591.59    
   2100000   446.87298     -19926.237      2245.3548     -10578.427      40.274355      805606.41    
Loop time of 2503.98 on 8 procs for 2000000 steps with 5333 atoms

Performance: 1380.200 ns/day, 0.017 hours/ns, 798.727 timesteps/s
100.0% CPU use with 8 MPI tasks x 1 OpenMP threads

MPI task timing breakdown:
Section |  min time  |  avg time  |  max time  |%varavg| %total
---------------------------------------------------------------
Pair    | 1000.2     | 1029       | 1069.7     |  70.3 | 41.09
Bond    | 39.558     | 39.859     | 40.741     |   6.4 |  1.59
Kspace  | 825.4      | 867.72     | 897.01     |  77.7 | 34.65
Neigh   | 185.78     | 185.93     | 186.23     |   1.0 |  7.43
Comm    | 107.51     | 155.89     | 181.13     | 225.0 |  6.23
Output  | 0.78645    | 0.80879    | 0.95329    |   6.1 |  0.03
Modify  | 185.86     | 212.71     | 266.48     | 212.6 |  8.49
Other   |            | 12.11      |            |       |  0.48

Nlocal:        666.625 ave         678 max         654 min
Histogram: 2 0 0 0 0 2 2 1 0 1
Nghost:        1706.12 ave        1721 max        1688 min
Histogram: 2 0 1 0 1 0 0 1 0 3
Neighs:        16947.1 ave       17449 max       16460 min
Histogram: 2 0 0 0 1 1 3 0 0 1

Total # of neighbors = 135577
Ave neighs/atom = 25.422276
Ave special neighs/atom = 1.1250703
Neighbor list builds = 200000
Dangerous builds = 200000
unfix fxnpt2

# fix fxnpt2 all npt temp 450 300 $(100*dt) iso 1 1 $(1000*dt) mtk yes
# run 2000000
# unfix fxnpt2

# fix fxnptrun all npt temp 300 300 $(100*dt) iso 1 1 $(1000*dt) mtk yes
# run 1000000

write_data end-cont.data
System init for write_data ...
PPPM initialization ...
  using 12-bit tables for long-range coulomb (src/kspace.cpp:342)
  G vector (1/distance) = 0.15640054
  grid = 18 18 18
  stencil order = 4
  estimated absolute RMS force accuracy = 0.0030535349
  estimated relative force accuracy = 9.1956295e-06
  using double precision KISS FFT
  3d grid and FFT values/proc = 2744 972
Generated 0 of 6 mixed pair_coeff terms from geometric mixing rule
Total wall time: 0:43:52
