
units lj
dimension 3
boundary p p p
neighbor 0.4 bin
neigh_modify every 1 delay 0 check yes
# comm_modify mode single cutoff 2.5 vel yes
comm_modify vel yes


atom_style hybrid angle mdpd charge
bond_style harmonic
angle_style harmonic


read_data end.data
Reading data file ...
  orthogonal box = (-0.69994298 -0.69994298 -0.69994298) to (10.699943 10.699943 10.699943)
  7 by 1 by 2 MPI processor grid
  reading atoms ...
  8985 atoms
  reading velocities ...
  8985 velocities
  scanning bonds ...
  1 = max bonds/atom
  scanning angles ...
  1 = max angles/atom
  reading bonds ...
  3000 bonds
  reading angles ...
  2000 angles
Finding 1-2 1-3 1-4 neighbors ...
  special bond factors lj:    0        0        0       
  special bond factors coul:  0        0        0       
     2 = max # of 1-2 neighbors
     1 = max # of 1-3 neighbors
     2 = max # of 1-4 neighbors
     3 = max # of special neighbors
  special bonds CPU = 0.002 seconds
  read_data CPU = 0.105 seconds

pair_style hybrid/overlay mdpd/rhosum mdpd 1.0 1.0 65689 coul/long 2.0
# pair_style hybrid/overlay mdpd/rhosum mdpd 1.0 1.0 65689
pair_coeff  *  *   mdpd/rhosum  0.75

# Adds one more property to the atoms, q = charge
# ghost yes is necessary for computational stuff

# dielectric 80

kspace_style pppm 1.0e-5
kspace_modify order 4 mesh 16 16 16

set type 1 charge  -1
Setting atom values ...
  1000 settings made for charge
set type 3 charge  1
Setting atom values ...
  1000 settings made for charge
pair_coeff  1*3  1*3 coul/long

# 1 - Qa (SDS-H)
# 2 - C1
# 3 - Qd (Na)
# 4 - W

variable gamma equal 0 # 4.5

pair_coeff  1  1   mdpd  -30.0  25.0  $(v_gamma)  1.0  0.75
pair_coeff  1  1   mdpd  -30.0  25.0  0  1.0  0.75
pair_coeff  1  2   mdpd  -26.0  25.0  $(v_gamma)  1.0  0.75
pair_coeff  1  2   mdpd  -26.0  25.0  0  1.0  0.75
pair_coeff  1  3   mdpd  -30.0  25.0  $(v_gamma)  1.0  0.75
pair_coeff  1  3   mdpd  -30.0  25.0  0  1.0  0.75
pair_coeff  1  4   mdpd  -50.0  25.0  $(v_gamma)  1.0  0.75
pair_coeff  1  4   mdpd  -50.0  25.0  0  1.0  0.75

pair_coeff  2  2   mdpd  -26.0  25.0  $(v_gamma)  1.0  0.75
pair_coeff  2  2   mdpd  -26.0  25.0  0  1.0  0.75
pair_coeff  2  3   mdpd  -26.0  25.0  $(v_gamma)  1.0  0.75
pair_coeff  2  3   mdpd  -26.0  25.0  0  1.0  0.75
pair_coeff  2  4   mdpd  -26.0  25.0  $(v_gamma)  1.0  0.75
pair_coeff  2  4   mdpd  -26.0  25.0  0  1.0  0.75

pair_coeff  3  3   mdpd  -30.0  25.0  $(v_gamma)  1.0  0.75
pair_coeff  3  3   mdpd  -30.0  25.0  0  1.0  0.75
pair_coeff  3  4   mdpd  -50.0  25.0  $(v_gamma)  1.0  0.75
pair_coeff  3  4   mdpd  -50.0  25.0  0  1.0  0.75

pair_coeff  4  4   mdpd  -50.0  25.0  $(v_gamma)  1.0  0.75
pair_coeff  4  4   mdpd  -50.0  25.0  0  1.0  0.75


# special_bonds lj 0 1 1

bond_coeff 1 150 0.5
angle_coeff 1 5 180

dump        mydump  all atom 5000 sds-cont.lammpstrj


thermo              100
timestep            0.01

fix mom all momentum 1000 linear 1 1 1

fix fxnpt all npt temp 1.0 1.3 $(100*dt) tchain 1 iso 0.1 0.1 $(1000*dt)  mtk yes
fix fxnpt all npt temp 1.0 1.3 1 tchain 1 iso 0.1 0.1 $(1000*dt)  mtk yes
fix fxnpt all npt temp 1.0 1.3 1 tchain 1 iso 0.1 0.1 10  mtk yes
run 200000

CITE-CITE-CITE-CITE-CITE-CITE-CITE-CITE-CITE-CITE-CITE-CITE-CITE

Your simulation uses code contributions which should be cited:

- pair mdpd command:

@Article{ZLi2013_POF,
 author = {Li, Z. and Hu, G.H. and Wang, Z.L. and Ma Y.B. and Zhou, Z.W.},
 title = {Three dimensional flow structures in a moving droplet on substrate: a dissipative particle dynamics study},
 journal = {Physics of Fluids},
 year = {2013},
 volume = {25},
 pages = {072103}
}

CITE-CITE-CITE-CITE-CITE-CITE-CITE-CITE-CITE-CITE-CITE-CITE-CITE

PPPM initialization ...
  using 12-bit tables for long-range coulomb (src/kspace.cpp:342)
  G vector (1/distance) = 1.0162886
  grid = 16 16 16
  stencil order = 4
  estimated absolute RMS force accuracy = 0.017608307
  estimated relative force accuracy = 0.017608307
  using double precision KISS FFT
  3d grid and FFT values/proc = 1911 512
Generated 0 of 6 mixed pair_coeff terms from geometric mixing rule
Neighbor list info ...
  update every 1 steps, delay 0 steps, check yes
  max neighbors/atom: 2000, page size: 100000
  master list distance cutoff = 2.4
  ghost atom cutoff = 2.4
  binsize = 1.2, bins = 10 10 10
  3 neighbor lists, perpetual/occasional/extra = 3 0 0
  (1) pair mdpd/rhosum, perpetual
      attributes: full, newton on
      pair build: full/bin
      stencil: full/bin/3d
      bin: standard
  (2) pair mdpd, perpetual, half/full from (1)
      attributes: half, newton on
      pair build: halffull/newton
      stencil: none
      bin: none
  (3) pair coul/long, perpetual, skip from (2)
      attributes: half, newton on
      pair build: skip
      stencil: none
      bin: none
Per MPI rank memory allocation (min/avg/max) = 9.606 | 9.966 | 10.03 Mbytes
   Step          Temp          E_pair         E_mol          TotEng         Press          Volume    
         0   1.0686198     -10.699435      0.47376794    -8.6229154     -0.089874218    1481.4995    
       100   1.1505119     -10.512968      0.48124962    -8.3061426      1.3291765      1485.3529    
       200   1.0814119     -10.655845      0.45596519    -8.5779429     -1.0670895      1496.1014    
       300   0.94156155    -10.824485      0.41964253    -8.9926576     -2.9654768      1495.5929    
       400   0.90049803    -10.942307      0.40397295    -9.1877375     -1.4179364      1477.3854    
       500   0.93026693    -10.829141      0.43620166    -8.9976941      1.4299465      1461.1016    
       600   1.0226091     -10.803068      0.45743335    -8.8118915      2.7880173      1460.1839    
       700   1.0668909     -10.65361       0.4847252     -8.568727       1.9137684      1474.7756    
       800   1.0638133     -10.663147      0.47076236    -8.5968423     -1.4427579      1490.799     
       900   1.0012693     -10.801294      0.4285066     -8.8710505     -1.9614269      1492.5847    
      1000   0.95502799    -10.875551      0.43785891    -9.00531       -0.85044068     1481.2136    
      1100   0.95424496    -10.849836      0.43310373    -8.9855245      0.8549203      1468.0354    
      1200   0.99430193    -10.883081      0.44802839    -8.9437653      1.44579        1463.6965    
      1300   1.0218716     -10.696589      0.47260421    -8.6913477      1.4446757      1470.8058    
      1400   1.0351933     -10.737074      0.46299396    -8.7214627     -0.48046089     1482.1215    
      1500   0.99627274    -10.805806      0.44916367    -8.8623992     -0.96777313     1486.3433    
      1600   0.98929052    -10.721861      0.4370889     -8.8010019     -0.27070968     1481.6127    
      1700   0.99503034    -10.917423      0.43275617    -8.9922874     -0.28887446     1473.9216    
      1800   0.98762187    -10.848901      0.43370544    -8.9339276      0.96286227     1469.0947    
      1900   0.99674775    -10.823615      0.4587916     -8.8698683      1.0835171      1470.7882    
      2000   1.0372246     -10.798494      0.44164277    -8.8011878      0.75513801     1475.644     
      2100   1.0169631     -10.776133      0.45403246    -8.796826       0.12099907     1481.1563    
      2200   1.000017      -10.747351      0.43847557    -8.8090173     -0.81557824     1483.4768    
      2300   0.99410139    -10.777676      0.44186055    -8.8448295     -0.24715732     1479.71      
      2400   0.99746431    -10.798555      0.45253476    -8.8499905      0.092539823    1474.5252    
      2500   0.99553765    -10.769483      0.45199124    -8.8243519      0.72315143     1473.0112    
      2600   1.0132398     -10.773555      0.43844888    -8.8154151      0.20426864     1476.1291    
      2700   1.013721      -10.788579      0.44988142    -8.8182851     -0.22902895     1479.2332    
      2800   1.0056078     -10.723146      0.45382864    -8.7610733     -0.23789619     1479.9781    
      2900   0.99644217    -10.788232      0.44529979    -8.8484351     -0.12475644     1478.5393    
      3000   1.0048806     -10.869232      0.45771664    -8.904362       0.1098147      1476.2035    
      3100   0.99502202    -10.757041      0.44518849    -8.8194857      0.90648724     1474.8796    
      3200   0.98928256    -10.779541      0.44958256    -8.8461996      0.48898357     1476.4316    
      3300   0.9973411     -10.814376      0.44913253    -8.8693985     -0.22076942     1479.0439    
      3400   1.0104385     -10.752696      0.45521864    -8.7819881     -0.01212969     1479.8383    
      3500   1.0213977     -10.796473      0.44428587    -8.8202616      0.21650759     1479.1568    
      3600   0.99546611    -10.716479      0.45057336    -8.7728731      0.75063601     1478.5187    
      3700   0.99888376    -10.817417      0.44207557    -8.877183       0.092768958    1477.342     
      3800   1.0075398     -10.871587      0.44646538    -8.9139799      0.29460479     1475.472     
      3900   1.0096997     -10.83501       0.45389505    -8.8667336      0.24021491     1474.5802    
      4000   1.0099476     -10.847711      0.46243466    -8.8705231      0.19151351     1475.851     
      4100   1.0128344     -10.865895      0.45578571    -8.8910265     -0.47984356     1478.5609    
      4200   1.003307      -10.854453      0.45341168    -8.8962483     -0.63766627     1479.9694    
      4300   0.99115031    -10.87713       0.43759124    -8.9529784      0.13860759     1478.1244    
      4400   0.99512675    -10.829873      0.45036625    -8.8869825      0.95506932     1475.5675    
      4500   1.0153164     -10.862581      0.46354215    -8.8762335      0.067629385    1476.0603    
      4600   1.0160736     -10.880392      0.45384589    -8.902605      -0.23281966     1478.7636    
      4700   1.0038504     -10.809438      0.45687463    -8.8469552     -1.0268435      1480.4667    
      4800   1.0148188     -10.83905       0.45745461    -8.8595363     -0.3715923      1478.3942    
      4900   1.0065968     -10.791192      0.44805161    -8.8334136      0.36432006     1475.6147    
      5000   1.0059709     -10.788446      0.44383494    -8.8358223      0.45649464     1475.0416    
      5100   1.0150016     -10.78566       0.428209      -8.8351183      0.074061819    1476.2659    
      5200   1.0239989     -10.769082      0.46124918    -8.7720051     -0.051227024    1477.056     
      5300   1.0103951     -10.711246      0.45318299    -8.7426392      0.1547555      1477.3137    
      5400   1.019261      -10.771592      0.44757018    -8.7953001      0.043410895    1477.8655    
      5500   1.0027578     -10.82418       0.44727014    -8.8729404      0.10660492     1478.4088    
      5600   0.99965333    -10.796952      0.44112441    -8.8565141      0.32211636     1477.8057    
      5700   1.0068613     -10.732698      0.45164668    -8.7709273      0.54237077     1476.0843    
      5800   1.0229848     -10.817588      0.45377558    -8.8295064     -0.073340798    1475.6152    
      5900   1.0128347     -10.823331      0.47013155    -8.8341167      0.48489113     1476.9792    
      6000   1.0247353     -10.844451      0.43401881    -8.8735006     -0.47136762     1479.2362    
      6100   1.006718      -10.818217      0.44816254    -8.8601459     -0.24227524     1479.6945    
      6200   1.0069261     -10.818605      0.44879347    -8.8595903     -0.61995201     1477.9269    
      6300   1.0098904     -10.844249      0.44284366    -8.8867386      0.26174169     1474.0468    
      6400   1.012353      -10.796011      0.45260754    -8.8250426      0.95488608     1472.1149    
      6500   1.0152676     -10.852128      0.44570026    -8.8836954      0.062102005    1475.6183    
      6600   1.0157891     -10.825804      0.42789673    -8.8743933     -0.063914914    1481.0647    
      6700   0.99441366    -10.744946      0.43697705    -8.8165142     -1.1949529      1483.664     
      6800   0.99769345    -10.771516      0.4447618     -8.8303806     -0.083800336    1479.3998    
      6900   1.0314961     -10.777157      0.45573851    -8.7743466      1.0409945      1473.3854    
      7000   1.023889      -10.77737       0.45596843    -8.7857391      1.0136635      1473.4957    
      7100   1.0208708     -10.831934      0.43753516    -8.8632635     -0.44252923     1479.0205    
      7200   1.009773      -10.764283      0.43497229    -8.81482       -0.69553568     1482.1013    
      7300   0.9913751     -10.820956      0.45254088    -8.8815179     -0.90927658     1480.2854    
      7400   1.0059878     -10.808338      0.45482154    -8.8447029      0.56376658     1475.5365    
      7500   1.0102878     -10.768571      0.43057585    -8.8227325      1.142072       1474.1781    
      7600   1.0278488     -10.76763       0.44435373    -8.7816748     -0.46903295     1477.3021    
      7700   1.0017722     -10.783051      0.45600945    -8.8245503     -0.32993462     1480.7245    
      7800   1.0016705     -10.815417      0.44618708    -8.8668916     -1.0738193      1481.3836    
      7900   1.0103585     -10.81708       0.44367712    -8.8580341      0.12042332     1478.7254    
      8000   1.0104547     -10.733472      0.45048338    -8.7674757      0.93161681     1476.4126    
      8100   1.0035902     -10.745677      0.45068028    -8.7897789      0.21173095     1476.3785    
      8200   1.015874      -10.749623      0.44538773    -8.780594       0.55317656     1478.2419    
      8300   1.0135887     -10.79407       0.43768296    -8.8361736     -0.16892845     1480.4197    
      8400   1.0111265     -10.859064      0.44775011    -8.8947925     -0.030051692    1479.6867    
      8500   1.010789      -10.786098      0.45839339    -8.8116899      0.30911431     1476.8813    
      8600   1.0231112     -10.836522      0.45707262    -8.844953       0.97041636     1475.188     
      8700   1.0129142     -10.757886      0.43926842    -8.7994158      0.33637564     1477.6763    
      8800   1.0001745     -10.775679      0.45030202    -8.8252822      0.01047248     1480.6057    
      8900   1.0026847     -10.754367      0.45318905    -8.7973185     -0.15106033     1480.5902    
      9000   1.0135486     -10.822005      0.44090062    -8.860951      -0.47579918     1478.5401    
      9100   1.023563      -10.840676      0.44545954    -8.8600432      0.46863225     1476.8874    
      9200   1.0081784     -10.721313      0.45139373    -8.7578199     -0.39046248     1478.3132    
      9300   1.0258664     -10.73604       0.44069365    -8.756718       0.39678442     1480.666     
      9400   1.0101786     -10.73534       0.4482128     -8.7720282      0.054956318    1481.5218    
      9500   1.0022308     -10.817631      0.43950045    -8.8749517     -0.58707216     1479.808     
      9600   1.005519      -10.742725      0.45155269    -8.7830617      0.52192645     1476.3287    
      9700   1.0102515     -10.783337      0.44908486    -8.8190432      0.92906085     1475.0307    
      9800   1.011807      -10.740375      0.44965851    -8.7731747      1.2007903      1476.7697    
      9900   1.0165175     -10.77462       0.445058      -8.8049553     -0.29241949     1480.2464    
     10000   1.0119813     -10.814507      0.44504979    -8.8516538      0.35045294     1481.3371    
     10100   1.0135241     -10.783995      0.44492762    -8.8189509     -0.02890459     1479.971     
     10200   1.0211885     -10.796069      0.45427634    -8.8101802      0.60829807     1477.6732    
     10300   1.0109648     -10.831904      0.45400555    -8.8616202      0.2265629      1477.7614    
     10400   1.0264213     -10.786789      0.45337046    -8.7939585      0.58457672     1478.3147    
     10500   1.0151491     -10.822009      0.45528199    -8.8441726     -0.32824147     1479.7876    
     10600   1.0140463     -10.870979      0.4439568     -8.906122       0.009418589    1480.5549    
     10700   1.0108579     -10.729172      0.44078509    -8.7722686      0.022246859    1479.5396    
     10800   1.0152914     -10.752406      0.44169908    -8.7879394      0.33843728     1476.3804    
     10900   1.0335722     -10.788974      0.45821429    -8.7805741      0.79993854     1474.914     
     11000   1.0330494     -10.687085      0.46315072    -8.6745322      0.51674909     1477.7546    
     11100   1.0223329     -10.733984      0.44366848    -8.7569869     -0.51214145     1482.4555    
     11200   0.99770352    -10.708678      0.43144981    -8.7808399     -0.64788871     1483.545     
     11300   1.0121612     -10.79908       0.44044639    -8.840561      -0.31704199     1478.7597    
     11400   1.0206645     -10.875439      0.45401371    -8.8905984      1.0124838      1473.1873    
     11500   1.0162429     -10.866334      0.4534104     -8.8887291      0.43088503     1474.1511    
     11600   1.0312863     -10.837274      0.4477039     -8.8428125     -0.01581286     1479.9038    
     11700   1.0209788     -10.802538      0.44753502    -8.8237055     -1.066508       1484.0854    
     11800   1.0192623     -10.757211      0.45943666    -8.7690512     -0.43613475     1482.7376    
     11900   1.0150776     -10.716846      0.45634961    -8.7380493      0.36607186     1477.953     
     12000   1.0138514     -10.73685       0.44484694    -8.7713951      0.71524911     1475.3727    
     12100   1.0097109     -10.807723      0.43866967    -8.8546558      0.59697438     1476.1217    
     12200   1.0115931     -10.728055      0.45248663    -8.7583475      0.30866343     1478.5391    
     12300   1.0290552     -10.807029      0.44233901    -8.8212787     -0.26891565     1480.7416    
     12400   1.0073443     -10.679573      0.44701859    -8.7217064     -0.83371685     1482.5607    
     12500   1.0212575     -10.682085      0.43629335    -8.7140759     -0.12176657     1481.5941    
     12600   1.0195544     -10.75461       0.46614723    -8.7593013      0.43790175     1478.1799    
     12700   1.0104526     -10.77722       0.44541346    -8.8162958      1.0177244      1475.7779    
     12800   1.0070247     -10.698829      0.44034076    -8.7481191      0.46534519     1476.3288    
     12900   1.0048341     -10.71986       0.44596855    -8.7668083      0.34406014     1478.3695    
     13000   1.0237614     -10.780233      0.45069529    -8.794067      -0.037658062    1480.4324    
     13100   1.0178551     -10.780291      0.45218312    -8.8014947     -0.39807098     1481.6769    
     13200   1.0275387     -10.78765       0.4519441     -8.7945694      0.45343819     1480.5259    
     13300   1.0295861     -10.735072      0.46611384    -8.7247505     -0.29997956     1480.3524    
     13400   1.0236976     -10.698046      0.45611163    -8.7065584     -0.52703266     1480.0852    
     13500   1.0120322     -10.781609      0.45758503    -8.8061443      0.022621245    1478.4757    
     13600   1.0139454     -10.768814      0.45360382    -8.7944612      0.25163045     1475.708     
     13700   1.0263547     -10.835019      0.4413732     -8.8542851      0.61831947     1474.5858    
     13800   1.0262035     -10.758257      0.4611382     -8.7579851      0.42078181     1476.8248    
     13900   1.0303184     -10.701589      0.44646181    -8.7098217      0.069380741    1481.7564    
     14000   1.0279227     -10.746157      0.44934793    -8.7550962     -1.3360804      1484.8106    
     14100   1.005192      -10.76121       0.43647429    -8.8171159     -0.4243213      1481.5458    
     14200   1.0080787     -10.768211      0.45589455    -8.8003667      0.49815588     1475.6088    
     14300   1.0296711     -10.769504      0.45019938    -8.7749703      0.94702164     1474.4097    
     14400   1.0259761     -10.783504      0.44782847    -8.7968826     -0.44490198     1479.3153    
     14500   1.0194532     -10.82609       0.45833124    -8.8387486     -0.92596717     1483.8261    
     14600   1.0099053     -10.73513       0.4448016     -8.7756392      0.58979931     1482.7916    
     14700   1.0246169     -10.831453      0.44725398    -8.8474444      0.031729472    1479.1191    
     14800   1.0311052     -10.769658      0.44269578    -8.7804768      0.78071661     1475.5709    
     14900   1.0249695     -10.663087      0.46902246    -8.6567817      0.85748938     1476.9085    
     15000   1.0181433     -10.828168      0.4528127     -8.8483102     -0.77692453     1481.6234    
     15100   1.0196425     -10.826868      0.44442504    -8.853149      -0.59421237     1482.8966    
     15200   1.0246506     -10.872973      0.45479811    -8.8813702      0.32257041     1480.8315    
     15300   1.0253281     -10.802173      0.46354207    -8.8008101     -0.084963599    1478.5435    
     15400   1.0236818     -10.766308      0.47418531    -8.7567708      0.38858124     1476.8499    
     15500   1.0303518     -10.831972      0.46512492    -8.8214916     -0.090927039    1477.7024    
     15600   1.0161791     -10.832849      0.4519583     -8.8567918     -1.0130594      1479.6466    
     15700   1.0074481     -10.823803      0.44778934    -8.8650093     -0.31725106     1478.9114    
     15800   1.0293455     -10.83946       0.4302953     -8.8653185      0.55329988     1476.8799    
     15900   1.0452759     -10.915578      0.4551456     -8.8926931      0.46628811     1477.5042    
     16000   1.023983      -10.834302      0.46838411    -8.8301146     -0.45745753     1480.9783    
     16100   1.021107      -10.774133      0.46323599    -8.7794067     -0.62755659     1483.6233    
     16200   1.0120898     -10.880795      0.44631406    -8.9165149      0.15002729     1481.5614    
     16300   1.0214713     -10.815205      0.45052117    -8.832647       0.16754171     1477.6854    
     16400   1.0246621     -10.767158      0.46026366    -8.7700727      0.24340711     1475.3474    
     16500   1.0235467     -10.831897      0.44691956    -8.8498278      0.4272557      1476.8325    
     16600   1.0231541     -10.799153      0.44958412    -8.8150086      0.13001886     1480.9976    
     16700   1.0143837     -10.861094      0.44298293    -8.8967049     -0.15045308     1483.2787    
     16800   1.0224477     -10.794987      0.45120228    -8.8102838     -0.35933337     1482.5628    
     16900   1.0301929     -10.80214       0.44627141    -8.810751       0.19949942     1479.8472    
     17000   1.0287953     -10.726427      0.45149428    -8.7319115      0.62781965     1476.4174    
     17100   1.0259841     -10.791079      0.44433371    -8.8079406      0.84242225     1475.0313    
     17200   1.0354974     -10.615063      0.45147533    -8.610514       0.27150845     1477.1261    
     17300   1.0399055     -10.815664      0.44389578    -8.8120836     -0.83681841     1480.6819    
     17400   1.0325011     -10.812068      0.4542209     -8.8092678     -0.096748324    1480.5281    
     17500   1.0366013     -10.7791        0.45342624    -8.7709447      0.26315133     1479.7518    
     17600   1.0258515     -10.729477      0.44607822    -8.744793       0.75298643     1480.2546    
     17700   1.0311422     -10.835558      0.45330069    -8.8357158     -0.071120725    1481.0119    
     17800   1.0079431     -10.719667      0.44704577    -8.7608749     -0.11476622     1480.0914    
     17900   1.0101306     -10.757564      0.44508986    -8.7974465      0.43533437     1477.5624    
     18000   1.0153749     -10.741767      0.45323023    -8.7656439      1.0866944      1476.4232    
     18100   1.0436696     -10.752995      0.45026971    -8.7373951      0.22160526     1478.5802    
     18200   1.0315063     -10.659015      0.45528132    -8.6566464      0.6717468      1482.8377    
     18300   1.0318363     -10.795668      0.45597172    -8.7921143     -0.75280074     1485.5456    
     18400   1.036734      -10.8477        0.44072514    -8.8520469      0.040209808    1484.1905    
     18500   1.0208203     -10.74536       0.4509445     -8.763356      -0.010158949    1480.8904    
     18600   1.0131684     -10.826921      0.4573924     -8.8499456      0.10060954     1477.2654    
     18700   1.0273946     -10.761262      0.45261381    -8.767728       0.9453514      1476.0117    
     18800   1.0282358     -10.730616      0.45975405    -8.7286801      0.71135249     1479.2418    
     18900   1.0241213     -10.762529      0.4501169     -8.7764014     -1.1575752      1483.3026    
     19000   1.0417054     -10.759993      0.44665681    -8.750952      -0.25219645     1482.9318    
     19100   1.0351418     -10.729163      0.45741625    -8.7192064      0.10568051     1480.3332    
     19200   1.0288071     -10.826786      0.44658435    -8.8371626      0.12123789     1478.6791    
     19300   1.0236826     -10.81718       0.46462591    -8.8172014      0.58261144     1479.0974    
     19400   1.0348539     -10.772291      0.45078278    -8.7694001     -0.023696205    1481.1606    
     19500   1.0128766     -10.850618      0.44534183    -8.88613       -0.1779622      1482.0987    
     19600   1.0286313     -10.837118      0.45196343    -8.8423798     -0.36636637     1479.8879    
     19700   1.0349496     -10.788134      0.45469698    -8.7811857      1.1410457      1476.7042    
     19800   1.0471507     -10.705571      0.46261918    -8.672401       0.54233396     1478.5314    
     19900   1.0418813     -10.767815      0.45427913    -8.7508878     -0.18187415     1482.8003    
     20000   1.0272041     -10.848281      0.43454498    -8.8731017     -0.79690854     1485.0859    
     20100   1.014271      -10.723955      0.45305696    -8.7496606      0.14422526     1481.6175    
     20200   1.040697      -10.75383       0.46039336    -8.7325651      0.72208372     1476.4946    
     20300   1.0401209     -10.751589      0.45144512    -8.7401366      1.0706065      1475.9267    
     20400   1.0329848     -10.679136      0.47157584    -8.6582554     -0.72546572     1480.0264    
     20500   1.0263821     -10.772752      0.44088268    -8.7924676      0.013266571    1483.2444    
     20600   1.0283353     -10.810057      0.4542919     -8.8134339     -0.49609429     1483.0131    
     20700   1.041957      -10.84132       0.45406219    -8.8244967     -0.26486218     1480.4107    
     20800   1.0420231     -10.834625      0.45009068    -8.8216734     -0.026493826    1477.5689    
     20900   1.0291712     -10.758919      0.45567012    -8.7596639      1.0403574      1476.3439    
     21000   1.0155862     -10.809554      0.47397615    -8.8123679     -0.15169454     1478.9583    
     21100   1.0330441     -10.79069       0.44591379    -8.7953823      0.35353918     1482.6541    
     21200   1.0329112     -10.785672      0.46132859    -8.7751488     -0.25506896     1483.7567    
     21300   1.0372969     -10.749807      0.46517739    -8.7288575      0.34740931     1483.2844    
     21400   1.0315987     -10.789186      0.46057205    -8.781388       0.12798655     1482.8269    
     21500   1.0336004     -10.802693      0.45741371    -8.7950512     -0.18208994     1482.1082    
     21600   1.0304413     -10.801144      0.45944092    -8.7962135      0.90923891     1481.4564    
     21700   1.0254202     -10.80306       0.45222598    -8.8128752      0.44029612     1481.2192    
     21800   1.0183794     -10.81439       0.44022989    -8.8467611     -0.098981213    1479.6315    
     21900   1.0239078     -10.772975      0.44194568    -8.7953382      0.45483563     1478.2337    
     22000   1.0341999     -10.800818      0.45571634    -8.7939743      0.48171773     1479.6928    
     22100   1.0312715     -10.802515      0.45623965    -8.7995405      0.10186975     1483.1043    
     22200   1.0402594     -10.745059      0.46223189    -8.7226114     -0.55291779     1485.4563    
     22300   1.0248149     -10.753631      0.44935398    -8.7672261     -0.086812669    1483.9129    
     22400   1.0352981     -10.768005      0.4582917     -8.7569389      0.1803907      1478.9894    
     22500   1.0423184     -10.754647      0.46471641    -8.7266273      0.82400658     1476.1374    
     22600   1.0292745     -10.73103       0.46052582    -8.7267646      0.59581621     1478.0296    
     22700   1.026137      -10.668277      0.45219225    -8.677051      -0.02755369     1482.6525    
     22800   1.0293274     -10.767698      0.44067891    -8.7831993     -0.85888285     1485.0299    
     22900   1.0281138     -10.763504      0.46260592    -8.758899      -0.50881958     1482.7026    
     23000   1.0508356     -10.825282      0.46620048    -8.7830036      0.68468954     1478.3617    
     23100   1.0399134     -10.665107      0.46827123    -8.637139       0.66310762     1477.653     
     23200   1.0268378     -10.7612        0.45598949    -8.7651249      0.43481371     1480.6658    
     23300   1.023692      -10.798664      0.45813812    -8.8051585     -0.78659502     1483.0339    
     23400   1.0246525     -10.742092      0.45167691    -8.7536079      0.072005138    1481.3525    
     23500   1.0243728     -10.803035      0.46706196    -8.7995846     -0.018287123    1477.5423    
     23600   1.0438179     -10.750032      0.47134751    -8.7131317      1.0823347      1475.6152    
     23700   1.0586697     -10.824129      0.45662523    -8.7796762      0.045611943    1478.6245    
     23800   1.0339762     -10.674336      0.45314516    -8.6703988      0.13731546     1484.3365    
     23900   1.0263051     -10.794601      0.45309256    -8.8022219     -1.0238175      1487.2953    
     24000   1.0186252     -10.760808      0.4386628     -8.7943773     -0.26537859     1484.4549    
     24100   1.0335146     -10.700024      0.46808732    -8.6818369      1.096123       1477.616     
     24200   1.0478278     -10.761638      0.47303316    -8.7170378      0.84925888     1475.7437    
     24300   1.0426429     -10.860962      0.46357838    -8.8335936     -0.19194805     1480.4263    
     24400   1.026468      -10.803086      0.45498109    -8.8085744     -0.63086329     1485.3663    
     24500   1.0198385     -10.796417      0.45905179    -8.8077773      0.129444       1484.3183    
     24600   1.0344618     -10.757176      0.4530892     -8.7525664      0.55512681     1480.6226    
     24700   1.0467918     -10.774618      0.46294543    -8.7416594      0.43470178     1478.9595    
     24800   1.0442418     -10.733088      0.46089031    -8.7060094      0.12175122     1480.6061    
     24900   1.0363295     -10.783431      0.45636537    -8.7727445     -0.067494172    1483.9836    
     25000   1.0218527     -10.792419      0.45570408    -8.8041065     -0.5561209      1485.1515    
     25100   1.0400268     -10.794469      0.45199326    -8.7826093      0.33478298     1482.7104    
     25200   1.034923      -10.860503      0.45543521    -8.8528559      0.38335374     1479.4871    
     25300   1.040003      -10.861995      0.44961123    -8.8525525      0.3401319      1478.8633    
     25400   1.0474668     -10.811663      0.45081101    -8.7898264     -0.40679772     1481.051     
     25500   1.0355155     -10.842913      0.45504736    -8.8347655      0.082746483    1483.3378    
     25600   1.0351977     -10.848296      0.46118222    -8.8344902     -0.53560496     1482.9984    
     25700   1.0323271     -10.726399      0.46590671    -8.7121742      0.12578555     1480.4974    
     25800   1.0379193     -10.809214      0.44946883    -8.8030399      0.87066023     1478.6687    
     25900   1.0472619     -10.881073      0.4688963     -8.8414585      0.47830755     1479.3369    
     26000   1.0391561     -10.803722      0.44742965    -8.7977316      0.20412449     1481.6476    
     26100   1.0445122     -10.759723      0.46580475    -8.727324      -0.395111       1483.0806    
     26200   1.0440901     -10.764401      0.44449201    -8.7539482      0.45983003     1482.0474    
     26300   1.0370835     -10.687342      0.47223566    -8.6596539      0.32226947     1480.8424    
     26400   1.0351        -10.684002      0.45634852    -8.675176       0.18259915     1481.5797    
     26500   1.0372449     -10.777045      0.44359884    -8.7777521      0.041801649    1482.4453    
     26600   1.0297399     -10.674088      0.45082188    -8.6788286     -0.55340219     1482.213     
     26700   1.0315271     -10.742141      0.45407721    -8.7409453      0.82628795     1479.853     
     26800   1.0458084     -10.753887      0.4527112     -8.7326378      0.38834513     1479.3634    
     26900   1.0482391     -10.838454      0.45501515    -8.8112553     -0.093590953    1481.6137    
     27000   1.0461452     -10.843657      0.47245882    -8.8021554     -0.45681269     1483.7284    
     27100   1.0307423     -10.779097      0.44845341    -8.7847022      0.11508391     1483.9444    
     27200   1.0358215     -10.765926      0.45758466    -8.7547822      0.029443838    1481.5621    
     27300   1.0480378     -10.751353      0.4505396     -8.7289321      0.66775572     1479.448     
     27400   1.046348      -10.740855      0.45810339    -8.7134043      0.47184307     1480.3803    
     27500   1.0432231     -10.814922      0.44760115    -8.8026605     -0.27572081     1482.8594    
     27600   1.0390666     -10.868618      0.4671018     -8.8430894     -0.437554       1482.5688    
     27700   1.0351604     -10.784783      0.45306295    -8.7791522     -0.080246568    1480.6676    
     27800   1.0326639     -10.784581      0.46164669    -8.7741105     -0.1693371      1478.6815    
     27900   1.0518007     -10.790937      0.46331934    -8.7500925      0.28176328     1478.9562    
     28000   1.0433599     -10.767868      0.46336929    -8.7396327      0.046491611    1480.7551    
     28100   1.0431892     -10.792462      0.44947257    -8.7783798     -0.50192923     1483.3905    
     28200   1.045646      -10.728479      0.45489365    -8.7052912     -0.3275891      1485.0061    
     28300   1.0393372     -10.714181      0.45475448    -8.700594      -0.13937462     1483.7665    
     28400   1.0441117     -10.793947      0.45177522    -8.7761787      0.25845482     1481.0806    
     28500   1.0420791     -10.79294       0.44566779    -8.7843275      1.0465508      1479.1516    
     28600   1.034397      -10.841831      0.451651      -8.8387576      0.2568452      1479.6118    
     28700   1.0537759     -10.782168      0.45000142    -8.7516785      0.92998742     1480.4119    
     28800   1.0630602     -10.861149      0.45297675    -8.8137594     -0.55353128     1484.4768    
     28900   1.0574376     -10.775315      0.45871155    -8.7306239      0.090850738    1487.2233    
     29000   1.0442431     -10.820424      0.45866637    -8.7955672     -1.1485015      1486.4543    
     29100   1.0296602     -10.798252      0.45153131    -8.8024025      0.32527887     1480.7143    
     29200   1.0482383     -10.678907      0.46081215    -8.645912       0.64840947     1475.2684    
     29300   1.0530905     -10.744574      0.46198741    -8.7031266      0.9627301      1475.6389    
     29400   1.0388423     -10.709109      0.45789018    -8.6931286      0.15229862     1482.4482    
     29500   1.0376004     -10.867108      0.44804847    -8.8628323     -1.3058934      1488.1278    
     29600   1.0488537     -10.811521      0.45512643    -8.7832889     -0.71592842     1485.8982    
     29700   1.0763279     -10.712973      0.45673091    -8.6419298      1.5023335      1479.3277    
     29800   1.0642244     -10.68978       0.46411278    -8.6295082      0.81033799     1477.5802    
     29900   1.0438708     -10.666762      0.45951405    -8.6416156     -0.15104609     1481.2379    
     30000   1.013874      -10.805811      0.45183058    -8.8333389     -0.53092439     1484.4247    
     30100   1.0227658     -10.79643       0.44470632    -8.817746      -0.30948272     1483.813     
     30200   1.047065      -10.821491      0.46946089    -8.7816071      0.52709613     1480.1238    
     30300   1.0639467     -10.704103      0.46358116    -8.6447796      0.76743496     1478.5564    
     30400   1.058409      -10.708043      0.45423902    -8.6663677      0.6327667      1480.7928    
     30500   1.0435911     -10.705843      0.46106966    -8.6795608     -0.22034056     1484.9381    
     30600   1.0450172     -10.716458      0.45681394    -8.6922925     -1.1091771      1486.667     
     30700   1.0371739     -10.720295      0.44895234    -8.7157546      0.040150708    1483.8748    
     30800   1.0476852     -10.847418      0.45500568    -8.8210596      0.81142574     1479.6178    
     30900   1.0627345     -10.683687      0.45935255    -8.6304104      0.96457307     1479.1798    
     31000   1.046093      -10.696587      0.4663217     -8.6613007     -0.21171654     1483.7621    
     31100   1.0401763     -10.741194      0.46004463    -8.7210585     -0.78308643     1487.5244    
     31200   1.0340855     -10.779024      0.4560556     -8.7720129     -0.1750201      1485.6296    
     31300   1.0579953     -10.719819      0.46882338    -8.6641793      0.29761307     1479.8375    
     31400   1.0579087     -10.695817      0.46142576    -8.6477045      0.91464069     1477.5284    
     31500   1.0480777     -10.818447      0.46755064    -8.7789545      0.020959113    1481.3359    
     31600   1.0557136     -10.831594      0.47196406    -8.7762355     -0.64103442     1486.2307    
     31700   1.0551573     -10.813047      0.44485046    -8.785637      -0.58807741     1487.0839    
     31800   1.0495205     -10.752503      0.47067628    -8.707721       0.56138616     1483.2654    
     31900   1.0373326     -10.788465      0.46309499    -8.7695447      0.11118725     1480.0535    
     32000   1.0468665     -10.68716       0.45345555    -8.663579       0.70465895     1480.0288    
     32100   1.0394605     -10.666464      0.45301415    -8.6544323     -0.43357677     1482.8828    
     32200   1.0593673     -10.646503      0.45555576    -8.602073       0.11211079     1484.2521    
     32300   1.046139      -10.760281      0.46686366    -8.7243832     -0.18198855     1484.226     
     32400   1.039976      -10.721654      0.46744001    -8.694424       0.20476798     1483.4494    
     32500   1.0490285     -10.770959      0.45783527    -8.7397563     -0.084800973    1481.8035    
     32600   1.0599791     -10.608753      0.46170298    -8.5572582      0.40816605     1480.979     
     32700   1.0504726     -10.7759        0.46531034    -8.7350564     -0.32056335     1483.0585    
     32800   1.0387226     -10.743891      0.45175608    -8.7342243      0.24314993     1484.6277    
     32900   1.0469895     -10.783707      0.4671283     -8.7462692     -0.052968705    1484.7408    
     33000   1.0485135     -10.763944      0.47394661    -8.7174022      0.35761915     1483.4845    
     33100   1.0459063     -10.794473      0.46671196    -8.759076       0.44558583     1481.8821    
     33200   1.0495001     -10.690348      0.47790091    -8.6383726     -0.51236189     1482.5322    
     33300   1.0546134     -10.792354      0.44999532    -8.7606147     -0.4206158      1483.28      
     33400   1.0375017     -10.757054      0.44870865    -8.7522659      0.048221439    1482.4625    
     33500   1.041157      -10.668874      0.46008321    -8.6472296      0.18743985     1481.6321    
     33600   1.0536564     -10.663444      0.47161685    -8.6115184      0.31528632     1481.5815    
     33700   1.0625801     -10.622618      0.45170107    -8.5772243     -0.17680518     1482.6496    
     33800   1.0711738     -10.685994      0.45829977    -8.6211128      0.22797787     1484.5512    
     33900   1.043037      -10.6482        0.47264532    -8.6111732     -0.73904006     1485.735     
     34000   1.059682      -10.788506      0.4621829     -8.736977      -0.36776859     1484.6044    
     34100   1.0397453     -10.684756      0.46397354    -8.6613377      0.03488519     1481.2727    
     34200   1.0548119     -10.710261      0.44411081    -8.6841082      1.3862649      1477.4523    
     34300   1.0554091     -10.750982      0.47059926    -8.6974457      0.54063885     1477.5826    
     34400   1.0683313     -10.754982      0.45301066    -8.699653      -0.1501394      1482.2967    
     34500   1.0514196     -10.776461      0.44191066    -8.7575966     -0.84245698     1488.0913    
     34600   1.0421198     -10.760091      0.45955368    -8.7375314     -0.74588461     1488.7221    
     34700   1.0490348     -10.68441       0.46280474    -8.6482278      0.52049116     1483.3611    
     34800   1.057057      -10.74396       0.46114001    -8.6974109      0.59252209     1477.3726    
     34900   1.0642107     -10.669163      0.46960667    -8.603418       0.52937117     1477.1065    
     35000   1.0390499     -10.702622      0.45320764    -8.6910128      0.030803705    1482.4927    
     35100   1.0350365     -10.778716      0.45083323    -8.7755005     -1.7344463      1487.3274    
     35200   1.0293496     -10.74245       0.44684307    -8.7517545     -0.36849729     1485.3798    
     35300   1.0734142     -10.66904       0.46105822    -8.5980392      1.0230473      1480.7884    
     35400   1.0842395     -10.657936      0.47841575    -8.553342       1.4265047      1479.7293    
     35500   1.0704845     -10.662435      0.46491699    -8.5919698      0.44292465     1485.1205    
     35600   1.0369504     -10.820203      0.44003158    -8.8249191     -0.85027038     1488.7678    
     35700   1.0212553     -10.79345       0.4598419     -8.8018961     -0.80509027     1484.4848    
     35800   1.0460804     -10.655475      0.4606523     -8.6258763      0.57638207     1478.4807    
     35900   1.0614352     -10.687282      0.46903798    -8.6262686      0.53501927     1477.4898    
     36000   1.0666869     -10.775098      0.47401345    -8.7012327      0.59072598     1481.7193    
     36100   1.0591183     -10.741921      0.46016443    -8.6932557     -0.3216836      1487.7278    
     36200   1.0405301     -10.692426      0.45787317    -8.6739313     -1.46493        1489.0679    
     36300   1.0452637     -10.767163      0.44812049    -8.7513213     -0.63803124     1483.7574    
     36400   1.0588723     -10.784102      0.49123347    -8.7047368      0.64474794     1477.8109    
     36500   1.0746684     -10.676187      0.45983323    -8.6045305      1.2938929      1478.112     
     36600   1.0623261     -10.706827      0.45533196    -8.6581829      0.13137229     1484.6648    
     36700   1.035072      -10.714958      0.46937303    -8.6931495     -0.79773406     1489.2278    
     36800   1.0472935     -10.729318      0.46707322    -8.6914794     -0.70026942     1487.5372    
     36900   1.0613429     -10.69193       0.46383812    -8.6362542      0.22118225     1482.6087    
     37000   1.0566987     -10.717997      0.47677911    -8.6563461      0.84215312     1479.4801    
     37100   1.0677516     -10.628861      0.4708982     -8.5565138      0.72952304     1480.9839    
     37200   1.0603701     -10.649172      0.46030996    -8.5984843      0.14366968     1485.3824    
     37300   1.0424147     -10.647898      0.45983813    -8.6246122     -0.42296586     1487.9264    
     37400   1.0457915     -10.726364      0.46278907    -8.6950625     -0.10837318     1485.3847    
     37500   1.0802182     -10.718915      0.45415594    -8.6446119     -0.25239443     1481.1137    
     37600   1.0686781     -10.708302      0.47066599    -8.6347971      1.0014979      1479.8956    
     37700   1.0504026     -10.746316      0.46355405    -8.7073337      0.22947185     1483.7431    
     37800   1.0463272     -10.704577      0.45056605    -8.6846943     -0.77262451     1487.3885    
     37900   1.0572039     -10.765578      0.45855583    -8.7213928     -0.25190959     1486.6482    
     38000   1.0603004     -10.67377       0.47206026    -8.6114363      0.49722778     1482.9238    
     38100   1.0700261     -10.767793      0.46512878    -8.6978041      0.24992308     1481.4137    
     38200   1.0663488     -10.688034      0.46043255    -8.6282565      0.5975776      1482.3393    
     38300   1.0703854     -10.79163       0.47410939    -8.7121208      0.29506808     1484.3522    
     38400   1.0427643     -10.766923      0.46588939    -8.7370618     -0.42882058     1485.211     
     38500   1.0484419     -10.717283      0.46190892    -8.6828858      0.040365641    1483.8288    
     38600   1.0478921     -10.705639      0.47116737    -8.6628082      0.48520601     1481.7764    
     38700   1.0761174     -10.7557        0.4578713     -8.6838322      1.3710216      1481.1156    
     38800   1.0740649     -10.744996      0.4645707     -8.6695072     -0.064931701    1485.4246    
     38900   1.0576995     -10.75868       0.4661641     -8.7061431     -0.76252171     1490.2723    
     39000   1.0512661     -10.770383      0.45348989    -8.7401692     -0.86091833     1490.4883    
     39100   1.053042      -10.665949      0.45647149    -8.6300905      0.36082491     1485.599     
     39200   1.0698187     -10.664607      0.46422898    -8.5958285      0.83462533     1481.2656    
     39300   1.0579871     -10.687205      0.45748399    -8.6429167     -0.3833497      1480.8533    
     39400   1.0490981     -10.627976      0.46107953    -8.5934249      0.40519388     1481.9791    
     39500   1.0468945     -10.745625      0.45063829    -8.7248201     -0.29313734     1484.4108    
     39600   1.0566427     -10.691123      0.47359207    -8.6327437      0.042190179    1485.2596    
     39700   1.0561309     -10.64593       0.4655353     -8.5963751     -0.33035795     1485.4618    
     39800   1.0732595     -10.801149      0.46722025    -8.724219      -0.45327573     1483.993     
     39900   1.0575702     -10.6296        0.4663577     -8.5770639      0.039778781    1482.7875    
     40000   1.0667379     -10.774406      0.46528234    -8.709195       0.039025186    1483.9938    
     40100   1.0591071     -10.67667       0.45873201    -8.629454       0.33165821     1485.6838    
     40200   1.0489735     -10.653723      0.47243581    -8.6080019      0.37054028     1486.1912    
     40300   1.0536311     -10.581641      0.46283305    -8.5385375     -0.11667595     1484.7784    
     40400   1.0690245     -10.628738      0.48194471    -8.5434348      0.19823333     1483.4994    
     40500   1.0815574     -10.672334      0.47352663    -8.5766522      0.10119983     1483.9363    
     40600   1.0782032     -10.784175      0.45049917    -8.7165507     -0.39830829     1485.4921    
     40700   1.0624068     -10.709167      0.46650822    -8.6492256      0.013400031    1486.0643    
     40800   1.0364865     -10.690419      0.46115541    -8.6747064     -0.68219208     1485.3104    
     40900   1.0454631     -10.761637      0.46549548    -8.7281213     -0.082920402    1481.3624    
     41000   1.0709        -10.655526      0.46596728    -8.5833878      1.0559838      1479.33      
     41100   1.0884845     -10.71215       0.47428357    -8.6053218      0.31630772     1483.294     
     41200   1.0726379     -10.728145      0.4631501     -8.6562173     -0.43015232     1491.2322    
     41300   1.0548768     -10.71907       0.45289285    -8.6840384     -1.4365953      1493.7118    
     41400   1.0443574     -10.781573      0.46004693    -8.7551644     -0.6834267      1486.9031    
     41500   1.0529845     -10.697988      0.47006229    -8.6486244      0.51842052     1477.7281    
     41600   1.0730657     -10.618764      0.45561401    -8.5537304      1.8178037      1475.4808    
     41700   1.0826928     -10.734199      0.46862283    -8.6417174      0.18002738     1481.7928    
     41800   1.0568454     -10.649138      0.45792231    -8.6061236     -0.84309463     1489.0245    
     41900   1.063748      -10.700941      0.4553654     -8.6501313     -0.24145247     1490.6386    
     42000   1.0590525     -10.793263      0.45285902    -8.7520022     -0.55660919     1486.8299    
     42100   1.0608858     -10.675044      0.4690349     -8.614858       1.0181521      1481.2393    
     42200   1.0660864     -10.67745       0.46805396    -8.6104441      0.46386598     1480.1127    
     42300   1.0585101     -10.717067      0.45866331    -8.6708155     -0.073181604    1483.3199    
     42400   1.0690239     -10.684349      0.45276806    -8.6282234     -0.60803247     1487.1646    
     42500   1.0651788     -10.666006      0.45273348    -8.6156826     -0.59171775     1486.3498    
     42600   1.0853297     -10.730309      0.47163182    -8.6308635     -0.35141235     1484.0346    
     42700   1.0757926     -10.722291      0.46191413    -8.6468673      0.78460956     1483.7194    
     42800   1.088345      -10.695106      0.47376823    -8.5890024     -0.37326732     1486.6911    
     42900   1.0616144     -10.700356      0.46097172    -8.6471397     -0.66990338     1489.6938    
     43000   1.0452933     -10.688686      0.45526558    -8.6656548     -0.87095077     1488.1869    
     43100   1.0468991     -10.7088        0.47443591    -8.6641902      0.03203959     1481.6566    
     43200   1.0813988     -10.716022      0.47719581    -8.6169085      0.42929425     1478.0951    
     43300   1.0698317     -10.658735      0.45873046    -8.5954355      1.0530508      1481.3027    
     43400   1.0735528     -10.654816      0.45962581    -8.5850405     -0.88140712     1488.7567    
     43500   1.0560168     -10.722527      0.46709499    -8.6715828     -1.6060565      1490.8168    
     43600   1.0674158     -10.75344       0.46025888    -8.6922358      0.14578956     1486.5049    
     43700   1.0688277     -10.690236      0.46083542    -8.6263372      0.72728627     1481.8572    
     43800   1.0777942     -10.718958      0.46511061    -8.6373359      1.2719172      1480.8255    
     43900   1.0626386     -10.688485      0.46524745    -8.6294575     -0.077475026    1483.3278    
     44000   1.0683509     -10.725354      0.48365214    -8.6393543     -0.15143342     1486.3222    
     44100   1.0611451     -10.705313      0.47206417    -8.641708      -0.046176101    1487.8773    
     44200   1.0758545     -10.736059      0.4653893     -8.6570677     -0.34021648     1487.3262    
     44300   1.0680044     -10.745053      0.45962488    -8.6835998      0.59588556     1485.9582    
     44400   1.0551846     -10.750697      0.46443802    -8.7036584      0.41023973     1485.346     
     44500   1.064309      -10.688916      0.47819538    -8.6144346     -0.47855819     1484.8281    
     44600   1.0674731     -10.705247      0.4682809     -8.6359351     -0.1389985      1484.7769    
     44700   1.0691981     -10.632694      0.47459885    -8.5544761      0.41122541     1484.5013    
     44800   1.0598309     -10.719877      0.46911997    -8.6611874      0.16972726     1485.3494    
     44900   1.0738955     -10.74262       0.46649816    -8.6654576     -0.39085055     1486.0821    
     45000   1.0773104     -10.679198      0.4618715     -8.6015405      0.42415959     1485.07      
     45100   1.0781338     -10.691812      0.47059792    -8.604193      -0.16679667     1485.1011    
     45200   1.0625894     -10.646907      0.47005643    -8.5831442      0.31086302     1485.2632    
     45300   1.0682262     -10.64239       0.46518819    -8.575041      -0.10090968     1485.8098    
     45400   1.0653645     -10.765592      0.46706339    -8.7006599      0.20994337     1485.8719    
     45500   1.0699563     -10.688606      0.46782395    -8.6160258      0.57970089     1486.4706    
     45600   1.0819744     -10.692068      0.45466791    -8.6146195     -0.15825888     1487.0757    
     45700   1.0630003     -10.770311      0.45303603    -8.7229524     -0.16563124     1485.8751    
     45800   1.0761816     -10.709141      0.45954631    -8.6355021      0.20184184     1484.2293    
     45900   1.0727668     -10.762909      0.47457832    -8.6793597      0.89656607     1483.644     
     46000   1.0632408     -10.714476      0.46073443    -8.6590583     -0.40214563     1485.7677    
     46100   1.0733215     -10.784161      0.46602174    -8.7083365     -0.14872577     1486.6368    
     46200   1.0677643     -10.732892      0.45632356    -8.6751006     -0.23282362     1485.5328    
     46300   1.0636053     -10.73457       0.46291291    -8.6764264      1.088145       1483.8174    
     46400   1.0762408     -10.68879       0.47149342    -8.6031155      0.56312664     1484.2577    
     46500   1.0730303     -10.686371      0.4805277     -8.596477      -0.52582453     1488.0089    
     46600   1.0626283     -10.686403      0.47105207    -8.6215854     -0.48896064     1491.248     
     46700   1.062341      -10.783083      0.47023815    -8.7195109     -0.58225012     1489.7284    
     46800   1.074292      -10.715347      0.46870602    -8.6353824      0.72106287     1485.2289    
     46900   1.0806748     -10.707076      0.46065102    -8.6255928      0.75193674     1481.953     
     47000   1.0897404     -10.67476       0.46937595    -8.5709557      0.31017388     1483.4534    
     47100   1.0601832     -10.719795      0.4615781     -8.6681196     -0.67411367     1488.465     
     47200   1.0614068     -10.704374      0.46213827    -8.6503027     -0.69018897     1490.6611    
     47300   1.0591615     -10.699478      0.46590767    -8.6450051      0.090113472    1486.557     
     47400   1.0926981     -10.694723      0.46948968    -8.5863689      1.2863749      1480.2481    
     47500   1.0807564     -10.652458      0.48540996    -8.5460939      1.1623908      1479.1431    
     47600   1.0717642     -10.609836      0.4627747     -8.5395942      0.22054314     1485.9637    
     47700   1.0525533     -10.700529      0.46570147    -8.6561732     -1.3333702      1492.4609    
     47800   1.0545295     -10.704365      0.45693136    -8.6658152     -1.0537413      1491.6837    
     47900   1.0651703     -10.680389      0.46311375    -8.6196977      0.23373839     1484.0723    
     48000   1.0842326     -10.711282      0.48275185    -8.6023626      1.2328355      1478.2267    
     48100   1.0848326     -10.621246      0.48298624    -8.5111917      0.95205189     1481.7012    
     48200   1.0724782     -10.628616      0.47812714    -8.5419507     -0.40847265     1489.4267    
     48300   1.0528707     -10.754169      0.454717      -8.7203221     -1.2172059      1492.4429    
     48400   1.0570964     -10.687954      0.47957739    -8.6229086     -0.18982811     1488.0565    
     48500   1.0797514     -10.795084      0.47595117    -8.6996857      1.0619997      1483.6086    
     48600   1.082278      -10.662355      0.48846869    -8.5506502      1.0576651      1483.746     
     48700   1.0680537     -10.681135      0.46549231    -8.6137406     -0.028831471    1487.171     
     48800   1.0702508     -10.736413      0.46253263    -8.6686824     -0.50646494     1489.1247    
     48900   1.0607954     -10.812436      0.47043479    -8.7509854     -0.58413505     1486.3764    
     49000   1.0664279     -10.699095      0.46338209    -8.6362492      0.66320917     1481.1585    
     49100   1.0799738     -10.753396      0.48170947    -8.6519065      1.1837713      1480.6957    
     49200   1.0878951     -10.69807       0.45620096    -8.610208       0.12617146     1486.017     
     49300   1.0801039     -10.734436      0.45963941    -8.6548208     -0.15612282     1491.3388    
     49400   1.0627629     -10.755617      0.44750624    -8.7141443     -1.1464182      1492.0977    
     49500   1.0837404     -10.65582       0.46380209    -8.5665879      0.44559972     1486.2465    
     49600   1.0840581     -10.60658       0.47002013    -8.5106541      0.47444894     1481.9298    
     49700   1.0940307     -10.653392      0.46690139    -8.5456269      0.84863481     1482.4504    
     49800   1.0688538     -10.684988      0.46794297    -8.613943      -0.33720823     1487.1479    
     49900   1.0456889     -10.779316      0.46200135    -8.7489558     -0.67710781     1490.1617    
     50000   1.0628671     -10.663564      0.48603279    -8.5834083     -0.4969879      1487.6094    
     50100   1.0815604     -10.607638      0.48340789    -8.5020702      0.59845376     1483.4875    
     50200   1.085255      -10.688219      0.4756704     -8.5848476      0.59507457     1483.7641    
     50300   1.075633      -10.726146      0.48211271    -8.6307636     -0.039111117    1487.2618    
     50400   1.0646312     -10.788765      0.46923017    -8.7227654     -0.48084211     1489.5543    
     50500   1.0752876     -10.7378        0.4556632     -8.6693853     -0.18711348     1488.1292    
     50600   1.084744      -10.744598      0.47728859    -8.6403745      0.58194393     1484.6643    
     50700   1.0770245     -10.734851      0.48169404    -8.6378         0.71724844     1483.5452    
     50800   1.080944      -10.762862      0.47549762    -8.666129       0.57503374     1485.5083    
     50900   1.0877743     -10.789889      0.48541184    -8.6729972     -0.5399748      1488.7607    
     51000   1.0621508     -10.658926      0.47135147    -8.5945258     -0.63228886     1490.3386    
     51100   1.0723839     -10.597849      0.46253738    -8.5269151      0.014228473    1487.7592    
     51200   1.0911442     -10.700646      0.47517528    -8.5889361      0.39718574     1483.8398    
     51300   1.090742      -10.659097      0.46406104    -8.5591051      0.52599915     1484.5765    
     51400   1.0680252     -10.696171      0.47019116    -8.6241205     -0.30282728     1487.3634    
     51500   1.0656903     -10.714529      0.46192271    -8.6542482     -0.29668138     1486.9587    
     51600   1.0675219     -10.745752      0.46218235    -8.6824646     -0.047780824    1484.6355    
     51700   1.0949477     -10.649929      0.46164866    -8.5460421      0.38385547     1482.6839    
     51800   1.1010292     -10.65606       0.47697223    -8.5277274      1.1276786      1483.7039    
     51900   1.0707099     -10.764529      0.47713271    -8.6815097     -0.77743709     1488.1693    
     52000   1.0668322     -10.782696      0.45791938    -8.7247066     -0.41040846     1488.6908    
     52100   1.0694091     -10.761969      0.46783511    -8.6901986     -0.067941448    1484.9352    
     52200   1.0830022     -10.701127      0.48285668    -8.5939479      0.53157436     1482.3107    
     52300   1.0912755     -10.633461      0.48683382    -8.5098964      0.96098687     1484.301     
     52400   1.0915214     -10.659445      0.46148915    -8.5608557      0.27596429     1489.9354    
     52500   1.0843238     -10.719989      0.46072445    -8.6329599     -1.2639085      1492.6752    
     52600   1.0673314     -10.714599      0.46289344    -8.6508863     -0.21011813     1487.7431    
     52700   1.0927482     -10.707361      0.46297804    -8.6054433      0.82081309     1481.1617    
     52800   1.0753741     -10.681616      0.46548304    -8.6032515      0.66832011     1480.8949    
     52900   1.0644072     -10.667304      0.44984153    -8.6210294      0.30108658     1484.7959    
     53000   1.0738692     -10.685476      0.46108991    -8.6137612     -0.43200165     1487.6526    
     53100   1.0841165     -10.691702      0.47874269    -8.5869652      0.0056750955   1488.1131    
     53200   1.1103209     -10.656514      0.46390896    -8.5273086     -0.1411776      1487.4196    
     53300   1.0807004     -10.670055      0.4742445     -8.5749399      0.21329352     1487.2412    
     53400   1.0752828     -10.706038      0.4621468     -8.6311469     -0.2454519      1488.1508    
     53500   1.0620445     -10.664671      0.46906677    -8.6027148     -0.28370974     1486.8964    
     53600   1.0724506     -10.729345      0.48072645    -8.6401218      1.1145787      1484.2077    
     53700   1.081242      -10.747625      0.46813872    -8.6578038      0.85423465     1484.3343    
     53800   1.0868041     -10.652195      0.47348015    -8.5486898      0.39201549     1487.2777    
     53900   1.0846722     -10.763132      0.47013793    -8.666167      -0.39515489     1489.8523    
     54000   1.071773      -10.754826      0.47360507    -8.6737398     -0.11144381     1489.2732    
     54100   1.0602572     -10.733666      0.46239532    -8.6810615     -0.4880256      1486.37      
     54200   1.0785004     -10.707471      0.47714842    -8.6127515      0.85183605     1483.407     
     54300   1.0870534     -10.703531      0.46707771    -8.6060549      0.47223295     1484.2364    
     54400   1.0892359     -10.705627      0.46970202    -8.6022527      0.20846173     1488.3882    
     54500   1.0882217     -10.694823      0.45867578    -8.6039966     -0.35785376     1492.1944    
     54600   1.0722954     -10.74682       0.46034045    -8.6782151     -0.928538       1492.1364    
     54700   1.0649264     -10.662699      0.46729363    -8.5981938      0.11887788     1486.5658    
     54800   1.0929457     -10.648503      0.47333841    -8.5359289      1.1882703      1481.6274    
     54900   1.0787361     -10.703686      0.4872544     -8.5985076      0.37907414     1483.687     
     55000   1.0717932     -10.628842      0.48088551    -8.5404458     -0.20816584     1490.5511    
     55100   1.0847897     -10.661244      0.46936056    -8.5648804     -0.099874035    1494.3722    
     55200   1.0853335     -10.677706      0.48864033    -8.5612464     -0.24667619     1491.6619    
     55300   1.0905325     -10.65826       0.48110472    -8.5415382      0.35355844     1486.1528    
     55400   1.0960145     -10.640767      0.48260694    -8.5143209      0.80437686     1482.5044    
     55500   1.0817692     -10.667518      0.46723579    -8.5778086      0.95880891     1483.6278    
     55600   1.0755713     -10.724719      0.46306347    -8.648478      -0.28601127     1487.9751    
     55700   1.0657297     -10.670654      0.4621964     -8.6100408     -0.34842139     1489.9445    
     55800   1.0878703     -10.713234      0.45048062    -8.6311291      0.32318293     1488.228     
     55900   1.1061556     -10.654874      0.47120043    -8.5246251      0.97679635     1485.8595    
     56000   1.0838955     -10.654832      0.46922706    -8.5599431      0.25769334     1486.1501    
     56100   1.0744881     -10.546182      0.48050911    -8.4541199      0.725565       1487.3918    
     56200   1.0760249     -10.606063      0.46328062    -8.5289247     -0.043636902    1488.2472    
     56300   1.0879715     -10.671661      0.47580347    -8.5640815      0.22565505     1487.5959    
     56400   1.0924532     -10.652848      0.48060592    -8.5337444      0.26636505     1487.2333    
     56500   1.0767906     -10.692545      0.46652747    -8.6110112     -0.10800145     1487.8775    
     56600   1.0873227     -10.750027      0.46073935    -8.6584851      0.7339009      1487.4611    
     56700   1.0872309     -10.738302      0.47514705    -8.6324901     -0.27366559     1486.4346    
     56800   1.0824054     -10.689829      0.47091759    -8.5954842      0.36797801     1486.0171    
     56900   1.0832625     -10.746673      0.48195868    -8.6400016     -0.326153       1487.4727    
     57000   1.0834067     -10.642137      0.4670036     -8.5502046      0.2130788      1489.1245    
     57100   1.0855294     -10.668162      0.47294253    -8.5671066      0.16742354     1490.132     
     57200   1.0854564     -10.622133      0.48076713    -8.5133628     -0.28897074     1489.6004    
     57300   1.0918411     -10.683865      0.47196999    -8.5743158     -0.42517964     1487.172     
     57400   1.1004502     -10.711608      0.47000748    -8.5911088      0.74721175     1485.4136    
     57500   1.0891112     -10.711743      0.4863104     -8.591948       0.76252995     1487.3586    
     57600   1.0678552     -10.663365      0.47926959    -8.5824905     -0.06914987     1492.0462    
     57700   1.0735962     -10.686819      0.45893202    -8.6176716     -0.8476548      1492.6769    
     57800   1.0818756     -10.725669      0.47306711    -8.6299693      0.081319171    1486.9172    
     57900   1.0908342     -10.64908       0.48904319    -8.5239678      0.71789321     1481.5631    
     58000   1.0935184     -10.658902      0.48457352    -8.5342331      0.65872304     1481.8672    
     58100   1.0962908     -10.690687      0.47784884    -8.5685852     -0.26880575     1488.0258    
     58200   1.0656524     -10.723864      0.45742759    -8.6681354     -0.8893601      1492.8394    
     58300   1.0583381     -10.6481        0.47094424    -8.5898256     -1.5410647      1491.2863    
     58400   1.1027615     -10.619362      0.47664573    -8.4887578      0.90426416     1484.4329    
     58500   1.1035944     -10.644049      0.48461852    -8.5042227      1.9218016      1482.1825    
     58600   1.0950603     -10.626965      0.48208017    -8.5024777     -0.28387277     1487.8369    
     58700   1.0731321     -10.682209      0.47802389    -8.5946666     -0.86382008     1492.585     
     58800   1.0752776     -10.622332      0.47053884    -8.5390561     -0.54290038     1490.9296    
     58900   1.0696388     -10.615478      0.4659826     -8.5452163      0.69225934     1485.7233    
     59000   1.1013128     -10.618298      0.46772704    -8.4987852      0.93262377     1483.8631    
     59100   1.1032102     -10.591779      0.49330173    -8.4438461      0.3744265      1486.3794    
     59200   1.0991554     -10.62909       0.46640014    -8.5141406     -0.11912982     1491.6006    
     59300   1.0587716     -10.725408      0.47013782    -8.6672898     -1.6307004      1494.1408    
     59400   1.0736938     -10.679869      0.45531379    -8.6141943      0.48973031     1488.2633    
     59500   1.1000834     -10.554861      0.47318708    -8.4317327      1.4709331      1483.0735    
     59600   1.120381      -10.622502      0.49556172    -8.4465562      1.0895343      1485.0344    
     59700   1.0990815     -10.599222      0.47813188    -8.4726517     -0.21458333     1491.9314    
     59800   1.0649356     -10.640299      0.47500463    -8.568069      -0.98845187     1496.4182    
     59900   1.0645012     -10.664993      0.4714155     -8.5970038     -0.92734695     1492.4776    
     60000   1.0927198     -10.69041       0.47499601    -8.5765169      0.87808959     1483.4072    
     60100   1.0898226     -10.597889      0.48372501    -8.4796124      1.685907       1480.1616    
     60200   1.1275369     -10.718445      0.47338283    -8.5539448      0.93925239     1485.506     
     60300   1.0867566     -10.637406      0.46145705    -8.5459953     -0.19177168     1493.8698    
     60400   1.0681944     -10.640102      0.47612359    -8.5618656     -1.1549404      1496.1702    
     60500   1.0822913     -10.633687      0.46647933    -8.5439511      0.19066775     1489.4032    
     60600   1.1086361     -10.663546      0.4716496     -8.5291269      0.75134635     1482.2758    
     60700   1.1182623     -10.688467      0.48281279    -8.5284479      1.0029227      1481.9506    
     60800   1.0863645     -10.695893      0.47406853    -8.5924596      0.26899403     1488.1059    
     60900   1.0691783     -10.664589      0.47211849    -8.5888817     -1.138424       1492.5214    
     61000   1.0703754     -10.754987      0.47822415    -8.6713782     -1.4248677      1490.6747    
     61100   1.0960365     -10.594964      0.47697516    -8.4741166      0.66278094     1484.9365    
     61200   1.1111062     -10.643847      0.49000693    -8.4873662      1.4899752      1483.6918    
     61300   1.0940595     -10.681167      0.47408758    -8.5661726      0.57313281     1488.4255    
     61400   1.0755806     -10.697217      0.4709722     -8.6130539     -0.52214213     1493.8586    
     61500   1.0824058     -10.685353      0.47069699    -8.5912281     -0.78909787     1494.3287    
     61600   1.098875      -10.734235      0.48578127    -8.6003245     -0.43210477     1490.8004    
     61700   1.0956721     -10.721835      0.48697605    -8.5915338      0.45157316     1486.997     
     61800   1.1090764     -10.685213      0.47881944    -8.542964       0.74776972     1486.1231    
     61900   1.0839481     -10.717336      0.48488413    -8.6067111      0.83598266     1488.0656    
     62000   1.0826723     -10.690393      0.46488531    -8.6016798     -0.44369392     1490.0921    
     62100   1.0867833     -10.669369      0.46364044    -8.5757347      0.11558326     1489.1614    
     62200   1.1045768     -10.561765      0.48087046    -8.4242136      0.64788486     1487.2413    
     62300   1.1227866     -10.639925      0.47714515    -8.4787873     -0.24714377     1487.8738    
     62400   1.0941871     -10.656359      0.47775538    -8.5375059      0.26135251     1490.2882    
     62500   1.0997731     -10.665749      0.46900933    -8.5472639      0.12230619     1492.0669    
     62600   1.0863028     -10.716952      0.47208493    -8.6155946      0.23853935     1490.6064    
     62700   1.0923909     -10.734849      0.46767286    -8.6287717      0.20954565     1485.9795    
     62800   1.0936918     -10.682897      0.48214437    -8.5603971      0.94211883     1483.6243    
     62900   1.1064885     -10.608347      0.47415618    -8.4746433      0.42849682     1486.6539    
     63000   1.0985116     -10.665866      0.47678703    -8.5414947     -0.2400815      1491.4984    
     63100   1.0918908     -10.628273      0.48424654    -8.5063726     -0.71782467     1493.4634    
     63200   1.0931577     -10.712446      0.46827084    -8.6046211     -0.59832236     1490.1234    
     63300   1.0894062     -10.657832      0.48750971    -8.5363948      0.45981869     1484.4147    
     63400   1.084977      -10.655982      0.47662681    -8.5520706      1.0300313      1483.2225    
     63500   1.1024611     -10.68584       0.46208315    -8.5702489      0.72081821     1485.6705    
     63600   1.092995      -10.699678      0.48207373    -8.5782942      0.08978261     1490.0899    
     63700   1.0976076     -10.694643      0.48064918    -8.5677653     -0.61977057     1492.3453    
     63800   1.1048163     -10.651366      0.48564371    -8.5086825     -0.39125886     1490.3847    
     63900   1.108308      -10.678712      0.47911485    -8.5373207      0.87881677     1487.1611    
     64000   1.108811      -10.641524      0.48981395    -8.4886786      0.92103305     1486.2426    
     64100   1.1050368     -10.695924      0.46891436    -8.569639      -0.054658353    1488.2548    
     64200   1.0939365     -10.643482      0.48633352    -8.5164265     -0.27324633     1490.8774    
     64300   1.0850947     -10.658616      0.47516972    -8.5559851     -0.61701359     1490.5336    
     64400   1.0848185     -10.688634      0.48230509    -8.5792823      0.0065445522   1486.3321    
     64500   1.1076644     -10.671815      0.48689118    -8.5236122      0.66730945     1483.6197    
     64600   1.0878913     -10.686669      0.47016593    -8.5848477      0.83337048     1485.5511    
     64700   1.0952043     -10.683451      0.47835744    -8.5624701      0.22757927     1489.6943    
     64800   1.0947361     -10.617903      0.46236009    -8.5136213      0.089388228    1492.3072    
     64900   1.0863004     -10.658615      0.47396239    -8.555383      -0.8862075      1491.2593    
     65000   1.1030357     -10.669232      0.47018594    -8.5446767      0.44546014     1487.2768    
     65100   1.1037391     -10.594231      0.49269689    -8.4461101      0.73527364     1485.1244    
     65200   1.1146656     -10.611694      0.47274782    -8.4671343      0.91973549     1487.5442    
     65300   1.1013563     -10.591917      0.4868202     -8.4532466     -0.39421918     1492.123     
     65400   1.0916367     -10.635095      0.48396415    -8.513858      -0.74250575     1492.6485    
     65500   1.0813427     -10.640453      0.46721278    -8.5514068      0.035325719    1488.4737    
     65600   1.09468       -10.633988      0.45786961    -8.5342808      1.4121591      1483.6197    
     65700   1.1140776     -10.680586      0.48009183    -8.5295637      0.83553398     1484.5073    
     65800   1.1077781     -10.731389      0.47593281    -8.5939742      0.013110908    1490.1289    
     65900   1.0936527     -10.649167      0.47758595    -8.5312843     -0.84887267     1493.6253    
     66000   1.076718      -10.569673      0.48449056    -8.4702854     -0.75772651     1491.8597    
     66100   1.1026679     -10.560362      0.47416687    -8.432377       0.95632178     1488.4416    
     66200   1.1100963     -10.682199      0.47868032    -8.53856        0.19125884     1487.9137    
     66300   1.0992754     -10.599331      0.47994347    -8.4706585      0.13927029     1488.3806    
     66400   1.0982403     -10.627594      0.46601047    -8.5144062      0.15190687     1489.0549    
     66500   1.0863822     -10.719851      0.4790508     -8.6114079     -0.26025632     1489.9018    
     66600   1.1053        -10.60438       0.47714889    -8.4694653     -0.38670359     1489.3983    
     66700   1.0994322     -10.56623       0.49110257    -8.4261629      0.70818471     1488.1888    
     66800   1.1064955     -10.647291      0.47274886    -8.5149832      0.094464443    1488.2622    
     66900   1.1145568     -10.591701      0.45717078    -8.4628808      0.25154679     1489.2861    
     67000   1.0962455     -10.582907      0.49289137    -8.4458302      0.018800099    1489.8275    
     67100   1.0946305     -10.608379      0.47256272    -8.4940537      0.16616149     1489.4593    
     67200   1.1054261     -10.618034      0.4791216     -8.4809577      0.28163        1489.1856    
     67300   1.1036808     -10.681889      0.48105098    -8.5455011      0.35747564     1488.9649    
     67400   1.1029974     -10.622503      0.49004621    -8.4781448     -0.42872857     1488.2258    
     67500   1.1161222     -10.667685      0.48107479    -8.5126134      0.57377423     1488.0785    
     67600   1.0928497     -10.646495      0.4689998     -8.5384031      0.39623087     1489.4783    
     67700   1.0862734     -10.607741      0.47766369    -8.5008488     -0.67097091     1491.3596    
     67800   1.1014394     -10.557258      0.48526036    -8.4200225     -0.48883316     1491.7992    
     67900   1.1118681     -10.619572      0.49015852    -8.4617967      0.73877839     1491.4591    
     68000   1.1177158     -10.649109      0.4776652     -8.4950572      0.13042814     1491.2916    
     68100   1.1130209     -10.697615      0.49143743    -8.5368324     -0.4833871      1492.327     
     68200   1.0887305     -10.720535      0.46855732    -8.619064      -0.83066473     1492.5641    
     68300   1.0926488     -10.690952      0.46244493    -8.5897168     -0.16989533     1488.8429    
     68400   1.1000758     -10.719924      0.49049382    -8.5794997      1.3894867      1483.8363    
     68500   1.1165882     -10.615523      0.50144904    -8.4393782      1.0894534      1485.3029    
     68600   1.1031096     -10.643567      0.48350309    -8.5055833     -0.70867934     1493.101     
     68700   1.0991227     -10.658154      0.48059353    -8.5290595     -0.74142971     1496.592     
     68800   1.1063509     -10.690755      0.46772117    -8.5636926     -0.066340101    1494.0519    
     68900   1.1043431     -10.679951      0.47209461    -8.5515258      0.25843864     1488.8902    
     69000   1.1098328     -10.585822      0.48076173    -8.4404968      0.98124491     1485.4128    
     69100   1.1004895     -10.6005        0.48781886    -8.4621303      0.99730084     1486.8278    
     69200   1.089792      -10.690698      0.47461347    -8.5815786     -0.23799804     1490.8057    
     69300   1.0834396     -10.627512      0.46264358    -8.5398901     -0.51655157     1491.3912    
     69400   1.1023115     -10.612122      0.47418605    -8.484653      -0.25151749     1488.2198    
     69500   1.1321783     -10.655175      0.49538541    -8.461711       0.61561153     1485.6653    
     69600   1.1334056     -10.659957      0.48696998    -8.4730674      0.28980445     1489.1664    
     69700   1.098004      -10.707208      0.47973051    -8.5806546     -0.43259553     1494.7328    
     69800   1.0948101     -10.750274      0.486276      -8.6219658     -0.95164508     1494.8744    
     69900   1.0962482     -10.719589      0.46536995    -8.6100299     -0.52095863     1489.3093    
     70000   1.1033819     -10.623157      0.48524156    -8.4830268      0.8051454      1483.7519    
     70100   1.1153771     -10.629594      0.50238152    -8.4543328      1.0295093      1485.1143    
     70200   1.1161276     -10.574174      0.48778919    -8.4123802     -0.5924298      1491.6751    
     70300   1.1023382     -10.586675      0.46673852    -8.4666133     -0.43637422     1496.296     
     70400   1.0978701     -10.670562      0.46501171    -8.5589279     -0.50307862     1493.9519    
     70500   1.1051426     -10.74868       0.47056098    -8.6205895      0.53844969     1486.2885    
     70600   1.1107203     -10.638775      0.49117463    -8.4817056      1.6895066      1482.8618    
     70700   1.1167396     -10.653509      0.48555627    -8.4930299      0.59234203     1487.6858    
     70800   1.1075543     -10.656529      0.48963514    -8.5057475     -0.21530374     1494.3894    
     70900   1.0870998     -10.658369      0.47671734    -8.5511837     -0.72795185     1497.2985    
     71000   1.1070222     -10.611983      0.47935119    -8.4722833     -0.67004128     1493.811     
     71100   1.1184077     -10.52091       0.47096749    -8.3725173      1.3010019      1486.7689    
     71200   1.1210147     -10.57641       0.49969383    -8.3953813      0.95273905     1484.2148    
     71300   1.1195283     -10.695473      0.48905717    -8.5273103     -0.14855341     1488.3661    
     71400   1.1025898     -10.62595       0.46860605    -8.5036429      0.13272309     1493.863     
     71500   1.0992638     -10.644598      0.46968908    -8.5261967     -0.15958371     1494.266     
     71600   1.0823405     -10.701534      0.46287716    -8.6153266      0.12117565     1490.7216    
     71700   1.1294016     -10.655142      0.48131435    -8.4799136      0.16105386     1486.9259    
     71800   1.1192655     -10.650236      0.48643039    -8.4850938      0.30269031     1487.9056    
     71900   1.1164577     -10.652093      0.4902635     -8.4873296      0.0083016178   1491.8959    
     72000   1.0853527     -10.665816      0.46311945    -8.5748486     -0.167924       1493.6234    
     72100   1.1009136     -10.697562      0.47033377    -8.5760413     -0.25625428     1490.4598    
     72200   1.1080776     -10.533896      0.47810112    -8.3938637      0.18914591     1486.4357    
     72300   1.1342153     -10.597917      0.48157196    -8.4152112      1.1482788      1486.6975    
     72400   1.1378383     -10.523291      0.47932047    -8.3374029     -0.11291419     1492.3065    
     72500   1.0932        -10.580333      0.48844768    -8.452268      -1.0039464      1497.8158    
     72600   1.0908513     -10.598867      0.46850536    -8.4942667     -0.78891617     1495.647     
     72700   1.0983415     -10.618693      0.49778114    -8.4735829     -0.030059807    1488.0825    
     72800   1.1248503     -10.589153      0.48444154    -8.4176234      1.7291449      1483.9015    
     72900   1.1313229     -10.651096      0.47759786    -8.4767031      0.57609306     1488.2946    
     73000   1.0959964     -10.589132      0.47725949    -8.4680603     -0.74628506     1495.0903    
     73100   1.102031      -10.685669      0.47273101    -8.5600754     -0.61270344     1496.1889    
     73200   1.1043165     -10.55106       0.48593422    -8.4088352      0.059368746    1491.5682    
     73300   1.1137446     -10.634134      0.47717564    -8.4865279      0.54654282     1486.4509    
     73400   1.1233794     -10.605805      0.49726196    -8.4236615      1.0811518      1485.5895    
[...]
   2682300   1.0601548     -10.640472      0.44842926    -8.6019871     -0.14637421     1485.4884    
   2682400   1.0688852     -10.712752      0.43756757    -8.672035      -1.3277024      1485.3245    
   2682500   1.0677444     -10.710265      0.45342349    -8.6554032      0.035619281    1482.5172    
   2682600   1.0646964     -10.601649      0.47112903    -8.5336535      0.74686917     1478.5818    
   2682700   1.0754736     -10.685919      0.456295      -8.6165933      0.72713452     1478.19      
   2682800   1.0771996     -10.705096      0.45650496    -8.6329711      0.12059548     1482.1778    
   2682900   1.0727505     -10.5926        0.4617162     -8.5219376     -1.1661488      1487.9193    
   2683000   1.0708997     -10.669813      0.45890912    -8.6047331     -0.0061436235   1490.8096    
   2683100   1.0770783     -10.65973       0.44690002    -8.5973922     -0.68157578     1486.8668    
   2683200   1.074921      -10.700914      0.46995969    -8.6187522     -0.10497963     1479.2004    
   2683300   1.073814      -10.651869      0.45875876    -8.5825687      0.77529712     1474.4576    
   2683400   1.0796239     -10.583758      0.45819625    -8.5063064      1.0597716      1476.1898    
   2683500   1.0763388     -10.692649      0.45975147    -8.6185693      0.26077127     1482.7755    
   2683600   1.066668      -10.703811      0.44021943    -8.6637681     -0.34378346     1489.0439    
   2683700   1.0591157     -10.577961      0.44965029    -8.5398141     -0.034735176    1489.0116    
   2683800   1.0546111     -10.636677      0.45189892    -8.6030376     -1.0322197      1484.0166    
   2683900   1.0692981     -10.715998      0.45915026    -8.6530787      1.0204026      1477.774     
   2684000   1.0639255     -10.686642      0.47207869    -8.6188529      0.76469775     1475.6872    
   2684100   1.068589      -10.702213      0.44587256    -8.6536355      1.3323165      1478.5672    
   2684200   1.0783256     -10.73567       0.44773726    -8.6706242     -0.77427006     1484.6828    
   2684300   1.0683826     -10.70924       0.45378923    -8.6530557     -0.47164665     1487.6442    
   2684400   1.0620901     -10.599884      0.45612299    -8.5508027      0.038401456    1486.7788    
   2684500   1.0862269     -10.68433       0.46578294    -8.5893884     -0.95176539     1483.5952    
   2684600   1.0952817     -10.658212      0.45089707    -8.5645752      1.5947294      1480.0239    
   2684700   1.0790738     -10.706732      0.45331923    -8.6349818      0.19823332     1479.8816    
   2684800   1.0707426     -10.72986       0.45582844    -8.6680963      0.35907593     1481.8556    
   2684900   1.0512905     -10.649602      0.46586369    -8.6069775     -0.40307215     1484.1104    
   2685000   1.0788562     -10.758632      0.44597132    -8.6945563      0.1036737      1485.6211    
   2685100   1.0624181     -10.718044      0.44301118    -8.6815832     -0.1937085      1484.625     
   2685200   1.0784002     -10.593763      0.45211384    -8.5242286      0.30806961     1481.3056    
   2685300   1.0842697     -10.663119      0.45729013    -8.5796054      1.1531108      1479.8121    
   2685400   1.0701704     -10.64538       0.4581388     -8.582164       0.33521001     1481.4772    
   2685500   1.0770881     -10.619479      0.43537697    -8.5686496     -0.16277881     1483.9635    
   2685600   1.0714928     -10.647822      0.4540038     -8.5867582     -0.63571203     1484.7257    
   2685700   1.0631325     -10.662766      0.46952032    -8.5987243     -0.28095633     1483.3281    
   2685800   1.0635952     -10.659768      0.45329972    -8.6112528      1.5422841      1481.4485    
   2685900   1.0658518     -10.717314      0.46183493    -8.6568795      0.7142141      1480.5554    
   2686000   1.0661316     -10.633899      0.45800305    -8.5768765     -0.067102109    1481.0388    
   2686100   1.0744872     -10.62524       0.44791046    -8.5657781      0.06537715     1482.6093    
   2686200   1.0669267     -10.72975       0.45151665    -8.678021      -0.39675458     1483.2271    
   2686300   1.0636942     -10.634274      0.46754818    -8.5713624     -0.25008755     1482.8478    
   2686400   1.0638477     -10.620716      0.46229154    -8.5628304      0.51794954     1481.8247    
   2686500   1.0716295     -10.603142      0.46935121    -8.5265252      0.23235293     1482.3828    
   2686600   1.0673892     -10.626873      0.44750422    -8.5784635      0.55757086     1483.9528    
   2686700   1.0739827     -10.629627      0.45850618    -8.5603259      0.56810278     1484.5753    
   2686800   1.066327      -10.726635      0.45068701    -8.6766354      0.58164325     1483.8776    
   2686900   1.0709744     -10.742837      0.45055576    -8.6859985     -0.12564253     1482.0322    
   2687000   1.0770538     -10.726263      0.46304248    -8.6478192      0.53247432     1479.8649    
   2687100   1.0601273     -10.758291      0.45730848    -8.7109687      1.3750609      1480.8133    
   2687200   1.0706788     -10.630551      0.45136365    -8.5733478      0.4035238      1485.1107    
   2687300   1.0822994     -10.642866      0.45111749    -8.5684796     -0.97695773     1488.9424    
   2687400   1.0781542     -10.699796      0.45366923    -8.6290755     -1.0999107      1488.3643    
   2687500   1.0659295     -10.674465      0.44847223    -8.6272768      0.47866868     1481.8177    
   2687600   1.0650054     -10.671608      0.44757715    -8.6267004      1.5461183      1474.5803    
   2687700   1.0719802     -10.624492      0.46549924    -8.5512017      1.16501        1472.1004    
   2687800   1.0739604     -10.609783      0.46190193    -8.5371199      1.5157607      1477.7828    
   2687900   1.0647528     -10.726756      0.45258791    -8.6772163     -0.85665326     1486.9005    
   2688000   1.063682      -10.653759      0.46469082    -8.5937224     -0.4199978      1491.2092    
   2688100   1.0685986     -10.645769      0.46347069    -8.5795789      0.32013113     1488.1013    
   2688200   1.0681939     -10.663838      0.4448845     -8.6168407      0.12956744     1481.9635    
   2688300   1.0748703     -10.623204      0.46614515    -8.5449332      0.93681733     1478.1672    
   2688400   1.0744063     -10.634952      0.46365927    -8.5598622      1.460852       1478.0867    
   2688500   1.0874893     -10.692996      0.46845294    -8.5934907      0.46582406     1480.9388    
   2688600   1.0693739     -10.680857      0.45073537    -8.6262395     -0.79321649     1485.6076    
   2688700   1.0832668     -10.695652      0.45625905    -8.6146733     -0.58187821     1487.8501    
   2688800   1.0786499     -10.72099       0.45485052    -8.6483451     -0.060284644    1487.0893    
   2688900   1.0657572     -10.653349      0.45594469    -8.5989464     -0.16938387     1483.1893    
   2689000   1.0644448     -10.579022      0.46215319    -8.5203788      1.9456104      1479.5245    
   2689100   1.0624227     -10.630274      0.4579266     -8.5788906      1.387879       1479.7852    
   2689200   1.059342      -10.568389      0.47112164    -8.508431       0.50469897     1483.4563    
   2689300   1.0881937     -10.642513      0.44124208    -8.5691622     -0.31109466     1486.2041    
   2689400   1.0775551     -10.686421      0.44747954    -8.622789       0.20234722     1486.3059    
   2689500   1.0698907     -10.814729      0.44903247    -8.7610389     -0.19856169     1484.3732    
   2689600   1.075821      -10.683594      0.45684961    -8.6131927      0.31423042     1480.8755    
   2689700   1.0606777     -10.704359      0.45563701    -8.6578823      0.041962877    1480.0113    
   2689800   1.0734434     -10.71232       0.46573038    -8.6366038      0.61105067     1482.2242    
   2689900   1.0674081     -10.693742      0.4446239     -8.6481837     -0.93857356     1484.8878    
   2690000   1.0679939     -10.57065       0.46564448    -8.5031934      0.40569604     1484.3978    
   2690100   1.0889961     -10.726724      0.45828392    -8.6351279      0.24401278     1483.0537    
   2690200   1.0741723     -10.568523      0.46603606    -8.4914078      0.077827512    1482.7413    
   2690300   1.0687254     -10.536562      0.4476884     -8.4859643      1.1229334      1483.0352    
   2690400   1.0635535     -10.605915      0.46219093    -8.5485717      0.13399691     1482.9847    
   2690500   1.0774182     -10.631394      0.45585724    -8.5595889      0.39639332     1481.8409    
   2690600   1.0737865     -10.567694      0.47010153    -8.4870925     -0.72200572     1480.9014    
   2690700   1.0580804     -10.623092      0.45306264    -8.5830856     -0.16721372     1482.3785    
   2690800   1.0770389     -10.59714       0.460198      -8.5215632      0.0093677935   1484.2887    
   2690900   1.088938      -10.663737      0.46333284    -8.5671785     -0.1283445      1485.3353    
   2691000   1.0552812     -10.678336      0.44825305    -8.6473374     -0.19580802     1485.1894    
   2691100   1.0527174     -10.669647      0.45931474    -8.631432      -0.59078956     1482.1049    
   2691200   1.0670147     -10.674244      0.46568173    -8.6082183      0.95636867     1478.281     
   2691300   1.0694267     -10.636616      0.45061906    -8.5820359      0.78615067     1477.3192    
   2691400   1.0611745     -10.608692      0.44886302    -8.5682444      0.49475019     1481.4027    
   2691500   1.0555299     -10.585871      0.45661066    -8.5461415      0.056179583    1486.8421    
   2691600   1.0446989     -10.685784      0.45127414    -8.6676363     -1.3263897      1488.9754    
   2691700   1.0651984     -10.718331      0.43843751    -8.6822732     -0.26364271     1485.7197    
   2691800   1.0828394     -10.740118      0.45650709    -8.6595322      0.75381977     1479.3874    
   2691900   1.072374      -10.69301       0.46478697    -8.6198414      1.6798484      1476.4766    
   2692000   1.0656174     -10.64067       0.45036149    -8.5920601      0.54477667     1478.3376    
   2692100   1.0796559     -10.64421       0.45127625    -8.5736302      0.1088621      1482.9353    
   2692200   1.080928      -10.611371      0.44620865    -8.5439507     -1.3087103      1487.8491    
   2692300   1.0429345     -10.657972      0.45824009    -8.6355046     -0.87744823     1488.7425    
   2692400   1.0699855     -10.605024      0.46580847    -8.534416      -0.37065925     1485.5385    
   2692500   1.0762175     -10.670926      0.4726405     -8.5841385      0.6230495      1480.8828    
   2692600   1.0692439     -10.723709      0.4676066     -8.652415       0.082909553    1478.12      
   2692700   1.0498973     -10.703424      0.45551009    -8.673243       0.3181397      1478.6341    
   2692800   1.0576756     -10.692321      0.47163712    -8.6343466     -0.79152202     1480.9424    
   2692900   1.052725      -10.6431        0.45920532    -8.6049832     -0.2225589      1483.8493    
   2693000   1.0790325     -10.627978      0.44951408    -8.560095      -0.52888925     1485.2259    
   2693100   1.0780851     -10.588342      0.45914415    -8.5122504     -0.7249766      1484.4612    
   2693200   1.0707843     -10.639542      0.46548794    -8.5680563     -0.40716304     1482.6826    
   2693300   1.0680894     -10.730228      0.47225427    -8.6560175     -0.44491942     1481.4886    
   2693400   1.0657287     -10.720959      0.45449412    -8.6680501     -0.030329809    1481.076     
   2693500   1.0507261     -10.734453      0.44770043    -8.7108393     -0.17398428     1480.9806    
   2693600   1.0708487     -10.749584      0.45962681    -8.683863       1.035655       1480.6464    
   2693700   1.0753966     -10.68176       0.45353446    -8.6153105     -0.68216716     1480.4583    
   2693800   1.0714102     -10.686738      0.45744479    -8.6223567      0.80027784     1480.6963    
   2693900   1.0775001     -10.603286      0.45844491    -8.528771       0.94986777     1483.4296    
   2694000   1.0745018     -10.623908      0.45929603    -8.5530388     -0.066577274    1485.9966    
   2694100   1.079577      -10.64859       0.45774983    -8.571655      -0.033024059    1485.9393    
   2694200   1.0606383     -10.679179      0.46215365    -8.626245      -0.1503528      1483.7802    
   2694300   1.0731803     -10.532575      0.47495745    -8.4480259      0.93444074     1479.9067    
   2694400   1.0854692     -10.629892      0.45282123    -8.5490485      1.0655485      1478.9846    
   2694500   1.0659114     -10.622197      0.45883509    -8.5646729      0.39179707     1481.4178    
   2694600   1.0736215     -10.687282      0.46541974    -8.6116097      0.062609871    1484.0771    
   2694700   1.072755      -10.747671      0.44882814    -8.6898895     -0.29816609     1484.8997    
   2694800   1.0666467     -10.777599      0.4539499     -8.7238576     -0.1347391      1483.656     
   2694900   1.0745414     -10.6648        0.46547044    -8.5876967      0.063828186    1481.2867    
   2695000   1.0598249     -10.678328      0.45824174    -8.6305255      0.54520466     1479.8085    
   2695100   1.0728873     -10.644138      0.44914937    -8.5858368      0.042012921    1480.4891    
   2695200   1.0661561     -10.585718      0.46124277    -8.5254192     -0.46214217     1482.2385    
   2695300   1.0641718     -10.607685      0.46368819    -8.5479166      0.10497003     1482.8757    
   2695400   1.0812046     -10.665952      0.46331364    -8.5810123      0.40290357     1482.7584    
   2695500   1.0737871     -10.711491      0.44499802    -8.655992       0.73035144     1482.9486    
   2695600   1.0799324     -10.711606      0.46562108    -8.6262666      1.2840211      1482.544     
   2695700   1.0864044     -10.725258      0.46297473    -8.6328581     -0.1938928      1481.8334    
   2695800   1.080478      -10.703281      0.45950121    -8.6232428      0.2845511      1483.0828    
   2695900   1.0621718     -10.625342      0.46804834    -8.5642134     -0.028930106    1485.7921    
   2696000   1.046352      -10.581594      0.45570133    -8.556539       0.11305142     1486.3079    
   2696100   1.077739      -10.700774      0.44873443    -8.6356109     -0.023739471    1484.0862    
   2696200   1.0670246     -10.638087      0.46298928    -8.574739       0.32683947     1481.5373    
   2696300   1.0586055     -10.767273      0.45944351    -8.7200984      0.33828825     1481.0825    
   2696400   1.0699222     -10.645287      0.46701742    -8.5735653     -0.10399683     1482.3931    
   2696500   1.0780384     -10.637315      0.44454607    -8.5758915      0.42304619     1483.5494    
   2696600   1.0705196     -10.652132      0.46491079    -8.5816206     -0.24524462     1483.5669    
   2696700   1.0747652     -10.648627      0.46331017    -8.5733484      0.31971637     1483.5541    
   2696800   1.0826354     -10.623474      0.45458883    -8.5451128      0.3008903      1483.8485    
   2696900   1.0597342     -10.675547      0.448945      -8.6371773     -0.2305022      1483.9539    
   2697000   1.0674766     -10.74521       0.47002774    -8.6741459      0.15039253     1482.1627    
   2697100   1.067007      -10.632928      0.45269165    -8.579904       0.42903555     1480.9659    
   2697200   1.0678742     -10.692375      0.45328827    -8.6374533      1.3041864      1480.3744    
   2697300   1.0672688     -10.673002      0.46781326    -8.6044632     -0.29485459     1482.6145    
   2697400   1.0641867     -10.664168      0.46328496    -8.6047811     -0.41153792     1486.1176    
   2697500   1.0727717     -10.669186      0.46116702    -8.5990403     -0.48792417     1488.3268    
   2697600   1.0569661     -10.686367      0.45944229    -8.6416521     -0.033136716    1485.7913    
   2697700   1.0677259     -10.693955      0.4608637     -8.6316811      1.6592961      1479.7746    
   2697800   1.0715835     -10.673779      0.46473212    -8.6018503      0.95501985     1476.9185    
   2697900   1.0830039     -10.762964      0.46481523    -8.6738241      0.91230889     1478.5216    
   2698000   1.0786639     -10.666722      0.46571814    -8.5831884      0.39406048     1484.3029    
   2698100   1.0696163     -10.56476       0.45677931    -8.5037349     -0.70275053     1489.6408    
   2698200   1.0541534     -10.613047      0.467049      -8.5649443     -0.53622784     1489.4556    
   2698300   1.0684087     -10.631993      0.47319354    -8.5563644      0.81989076     1483.1813    
   2698400   1.0914353     -10.610024      0.46273075    -8.5103227      1.0497673      1476.7653    
   2698500   1.0651838     -10.656102      0.4650974     -8.5934066      1.4325527      1476.0836    
   2698600   1.0500313     -10.629662      0.44617523    -8.6086156     -0.88374591     1481.8032    
   2698700   1.0645631     -10.62622       0.44316014    -8.5863932     -0.52393322     1486.551     
   2698800   1.0661812     -10.764071      0.43812508    -8.726852      -0.084585641    1486.7482    
   2698900   1.0688449     -10.59053       0.46486098    -8.5225796      0.84887847     1484.4249    
   2699000   1.074204      -10.699159      0.46329659    -8.6247353      0.57305419     1480.9003    
   2699100   1.068855      -10.647272      0.45735801    -8.5868097      1.2078929      1479.2976    
   2699200   1.0608276     -10.601265      0.46115758    -8.5490427      0.58190054     1481.0648    
   2699300   1.0648808     -10.672531      0.45768574    -8.6177018      0.12919208     1484.5152    
   2699400   1.062437      -10.704609      0.46677824    -8.6443525      0.056108397    1486.5243    
   2699500   1.0635202     -10.645198      0.46792124    -8.5821744     -0.54066187     1485.4031    
   2699600   1.0787734     -10.695645      0.45024528    -8.6274199     -0.027449994    1482.2127    
   2699700   1.0844886     -10.606192      0.45575608    -8.523884       1.2463353      1479.9976    
   2699800   1.0849299     -10.670049      0.46908044    -8.5737546      0.54633175     1481.9164    
   2699900   1.0846598     -10.716529      0.46071889    -8.6290016     -0.47974186     1485.6233    
   2700000   1.0739239     -10.642163      0.46220819    -8.5692481     -0.20276956     1487.0019    
Loop time of 9589.96 on 14 procs for 1000000 steps with 8985 atoms

Performance: 90094.256 tau/day, 104.276 timesteps/s
99.8% CPU use with 14 MPI tasks x 1 OpenMP threads

MPI task timing breakdown:
Section |  min time  |  avg time  |  max time  |%varavg| %total
---------------------------------------------------------------
Pair    | 3627.7     | 3717.7     | 3753       |  46.7 | 38.77
Bond    | 26.723     | 27.888     | 29.811     |  17.5 |  0.29
Kspace  | 782.96     | 815.62     | 920.3      | 117.6 |  8.50
Neigh   | 2356.7     | 2361.1     | 2366.2     |   6.6 | 24.62
Comm    | 2333.7     | 2357.7     | 2379.8     |  28.6 | 24.58
Output  | 1.2746     | 1.3516     | 2.3116     |  22.9 |  0.01
Modify  | 112.95     | 129.31     | 166.96     | 137.2 |  1.35
Other   |            | 179.3      |            |       |  1.87

Nlocal:        641.786 ave         652 max         619 min
Histogram: 1 0 0 1 0 2 2 3 3 2
Nghost:        5944.64 ave        6002 max        5896 min
Histogram: 1 2 0 2 4 0 3 1 0 1
Neighs:        50451.2 ave       53036 max       48005 min
Histogram: 2 1 1 1 1 3 2 1 1 1
FullNghs:       100902 ave      105424 max       95307 min
Histogram: 1 1 1 1 1 1 3 3 1 1

Total # of neighbors = 1412634
Ave neighs/atom = 157.22137
Ave special neighs/atom = 1.3355593
Neighbor list builds = 207709
Dangerous builds = 0

write_data end-cont.data
System init for write_data ...
PPPM initialization ...
  using 12-bit tables for long-range coulomb (src/kspace.cpp:342)
  G vector (1/distance) = 1.0157889
  grid = 16 16 16
  stencil order = 4
  estimated absolute RMS force accuracy = 0.017647241
  estimated relative force accuracy = 0.017647241
  using double precision KISS FFT
  3d grid and FFT values/proc = 1911 512
Generated 0 of 6 mixed pair_coeff terms from geometric mixing rule
Total wall time: 7:23:33
